! Job execution by suborca V 9.37 !
Job started from head1.mpi-muelheim.mpg.de, running /hsnfs/software/orca/orca_current_directory/orca_current_20230616/orca on xe30th26.mpi-muelheim.mpg.de in /usr/scratch/llang/mol__280308 (/bin/tcsh)
Job execution start: Fri Jun 16 23:33:02 CEST 2023
Shared library path: /hsnfs/software/openmpi-4.1.0/lib:/hsnfs/software/orca/orca_current_directory/orca_current_20230616:/hsnfs/software/themis/llvm-14.0.1/lib:/hsnfs/software/orca/orca_current:/hsnfs/software/orca/orca_current:/hsnfs/software/orca/orca_stable:/usr/users/openmpi-2.0.4/lib:/opt/intel/lib/intel64:/opt/intel/mkl/lib/intel64
SLURM Job ID is: 280308
SLURM_JOB_NODELIST: xe30th26
Maxcore enforced by SLURM: 2048 MB
Expanded nodelist (1 nodes):
xe30th26

                                 *****************
                                 * O   R   C   A *
                                 *****************

                                            #,                                       
                                            ###                                      
                                            ####                                     
                                            #####                                    
                                            ######                                   
                                           ########,                                 
                                     ,,################,,,,,                         
                               ,,#################################,,                 
                          ,,##########################################,,             
                       ,#########################################, ''#####,          
                    ,#############################################,,   '####,        
                  ,##################################################,,,,####,       
                ,###########''''           ''''###############################       
              ,#####''   ,,,,##########,,,,          '''####'''          '####       
            ,##' ,,,,###########################,,,                        '##       
           ' ,,###''''                  '''############,,,                           
         ,,##''                                '''############,,,,        ,,,,,,###''
      ,#''                                            '''#######################'''  
     '                                                          ''''####''''         
             ,#######,   #######,   ,#######,      ##                                
            ,#'     '#,  ##    ##  ,#'     '#,    #''#        ,####,   ,####,        
            ##       ##  ##   ,#'  ##            #'  '#       #'       #'  '#        
            ##       ##  #######   ##           ,######,      #####,   #    #        
            '#,     ,#'  ##    ##  '#,     ,#' ,#      #,     #,   #   #,  ,#        
             '#######'   ##     ##  '#######'  #'      '#     '####' # '####'.alpha  



                  #######################################################
                  #                        -***-                        #
                  #          Department of theory and spectroscopy      #
                  #    Directorship and core code : Frank Neese         #
                  #        Max Planck Institute fuer Kohlenforschung    #
                  #                Kaiser Wilhelm Platz 1               #
                  #                 D-45470 Muelheim/Ruhr               #
                  #                      Germany                        #
                  #                                                     #
                  #                  All rights reserved                #
                  #                        -***-                        #
                  #######################################################


                         Program Version 5.0  -  CURRENT   -
                                (GIT: $c98e330e2$)
                ($2023-06-16 08:51:22 +0200 $)

                  !                     WARNING:                         !
                  !         This is a DEVELOPMENT version                !

                         (BUILD: $Fr 16. Jun 09:00:53 CEST 2023$)


 With contributions from (in alphabetic order):
   Daniel Aravena         : Magnetic Suceptibility
   Michael Atanasov       : Ab Initio Ligand Field Theory (pilot matlab implementation)
   Alexander A. Auer      : GIAO ZORA, VPT2 properties, NMR spectrum
   Ute Becker             : Parallelization
   Giovanni Bistoni       : ED, misc. LED, open-shell LED, HFLD
   Martin Brehm           : Molecular dynamics
   Dmytro Bykov           : SCF Hessian
   Vijay G. Chilkuri      : MRCI spin determinant printing, contributions to CSF-ICE
   Dipayan Datta          : RHF DLPNO-CCSD density
   Achintya Kumar Dutta   : EOM-CC, STEOM-CC
   Dmitry Ganyushin       : Spin-Orbit,Spin-Spin,Magnetic field MRCI
   Miquel Garcia          : C-PCM and meta-GGA Hessian, CCSD/C-PCM, Gaussian charge scheme
   Yang Guo               : DLPNO-NEVPT2, F12-NEVPT2, CIM, IAO-localization
   Andreas Hansen         : Spin unrestricted coupled pair/coupled cluster methods
   Benjamin Helmich-Paris : MC-RPA, TRAH-(SCF,CASSCF), AVAS, COSX integrals, SCF dyn. polar.
   Lee Huntington         : MR-EOM, pCC
   Robert Izsak           : Overlap fitted RIJCOSX, COSX-SCS-MP3, EOM
   Marcus Kettner         : VPT2
   Christian Kollmar      : KDIIS, OOCD, Brueckner-CCSD(T), CCSD density, CASPT2, CASPT2-K, improved NEVPT2
   Simone Kossmann        : Meta GGA functionals, TD-DFT gradient, OOMP2, MP2 Hessian
   Martin Krupicka        : Initial AUTO-CI
   Lucas Lang             : DCDCAS
   Marvin Lechner         : AUTO-CI (C++ implementation), FIC-MRCC
   Dagmar Lenk            : GEPOL surface, SMD
   Dimitrios Liakos       : Extrapolation schemes; Compound Job, initial MDCI parallelization
   Dimitrios Manganas     : Further ROCIS development; embedding schemes
   Dimitrios Pantazis     : SARC Basis sets
   Anastasios Papadopoulos: AUTO-CI, single reference methods and gradients
   Taras Petrenko         : DFT Hessian,TD-DFT gradient, ASA, ECA, R-Raman, ABS, FL, XAS/XES, NRVS
   Peter Pinski           : DLPNO-MP2, DLPNO-MP2 Gradient
   Christoph Reimann      : Effective Core Potentials
   Marius Retegan         : Local ZFS, SOC
   Christoph Riplinger    : Optimizer, TS searches, QM/MM, DLPNO-CCSD(T), (RO)-DLPNO pert. Triples
   Tobias Risthaus        : Range-separated hybrids, TD-DFT gradient, RPA, STAB
   Michael Roemelt        : Original ROCIS implementation
   Masaaki Saitow         : Open-shell DLPNO-CCSD energy and density
   Barbara Sandhoefer     : DKH picture change effects
   Avijit Sen             : IP-ROCIS
   Kantharuban Sivalingam : CASSCF convergence, NEVPT2, FIC-MRCI
   Bernardo de Souza      : ESD, SOC TD-DFT
   Georgi Stoychev        : AutoAux, RI-MP2 NMR, DLPNO-MP2 response
   Willem Van den Heuvel  : Paramagnetic NMR
   Boris Wezisla          : Elementary symmetry handling
   Frank Wennmohs         : Technical directorship


 We gratefully acknowledge several colleagues who have allowed us to
 interface, adapt or use parts of their codes:
   Stefan Grimme, W. Hujo, H. Kruse, P. Pracht,  : VdW corrections, initial TS optimization,
                  C. Bannwarth, S. Ehlert          DFT functionals, gCP, sTDA/sTD-DF
   Ed Valeev, F. Pavosevic, A. Kumar             : LibInt (2-el integral package), F12 methods
   Garnet Chan, S. Sharma, J. Yang, R. Olivares  : DMRG
   Ulf Ekstrom                                   : XCFun DFT Library
   Mihaly Kallay                                 : mrcc  (arbitrary order and MRCC methods)
   Jiri Pittner, Ondrej Demel                    : Mk-CCSD
   Frank Weinhold                                : gennbo (NPA and NBO analysis)
   Christopher J. Cramer and Donald G. Truhlar   : smd solvation model
   Lars Goerigk                                  : TD-DFT with DH, B97 family of functionals
   V. Asgeirsson, H. Jonsson                     : NEB implementation
   FAccTs GmbH                                   : IRC, NEB, NEB-TS, DLPNO-Multilevel, CI-OPT
                                                   MM, QMMM, 2- and 3-layer-ONIOM, Crystal-QMMM,
                                                   LR-CPCM, SF, NACMEs, symmetry and pop. for TD-DFT,
                                                   nearIR, NL-DFT gradient (VV10), updates on ESD,
                                                   ML-optimized integration grids
   S Lehtola, MJT Oliveira, MAL Marques          : LibXC Library
   Liviu Ungur et al                             : ANISO software


 Your calculation uses the libint2 library for the computation of 2-el integrals
 For citations please refer to: http://libint.valeyev.net

 Your ORCA version has been built with support for libXC version: 5.2.2
 For citations please refer to: https://tddft.org/programs/libxc/

 This ORCA versions uses:
   CBLAS   interface :  Fast vector & matrix operations
   LAPACKE interface :  Fast linear algebra routines
   SCALAPACK package :  Parallel linear algebra routines
   Shared memory     :  Shared parallel matrices


================================================================================

----- Orbital basis set information -----
Your calculation utilizes the basis: DKH-def2-TZVP
   Exponents from def2-TZVP [F. Weigend and R. Ahlrichs, Phys. Chem. Chem. Phys. 7, 3297 (2005)],
   recontracted for DKH2 by D. A. Pantazis.

The basis set includes element-specific modifications.

Your calculation utilizes the basis: SARC-DKH-TZVP 
   Rb-Xe:  J. D. Rolfes, F. Neese and D. A. Pantazis, J. Comput. Chem. 41, 1842 (2020).
   La-Lu:  D. A. Pantazis and F. Neese, J. Chem. Theory Comput. 5, 2229 (2009).
   Hf-Hg:  D. A. Pantazis, X. Y. Chen, C. R. Landis and F. Neese, J. Chem. Theory Comput. 4, 908 (2008).
   Tl-Rn:  D. A. Pantazis and F. Neese, Theor. Chem. Acc. 131, 1292 (2012).
   Ac-Lr:  D. A. Pantazis and F. Neese, J. Chem. Theory Comput. 7, 677 (2011).

================================================================================
                                        WARNINGS
                       Please study these warnings very carefully!
================================================================================

WARNING: Old DensityContainer found on disk!
         Will remove this file - 
         If you want to keep old densities, please start your calculation with a different basename. 


INFO   : the flag for use of the SHARK integral package has been found!

================================================================================
                                       INPUT FILE
================================================================================
NAME = mol.inp
|  1> ! DKH2 DKH-def2-TZVP pal8 moread
|  2> 
|  3> %moinp "mol.blockcanon"
|  4> 
|  5> %casscf
|  6>   nel 3
|  7>   norb 5
|  8>   mult 4,2
|  9>   nroots 10,40
| 10>   maxiter 1
| 11>   actorbs unchanged
| 12>   intorbs unchanged
| 13>   extorbs unchanged
| 14> end
| 15> 
| 16> %basis
| 17>   NewGTO Mo "SARC-DKH-TZVP" end
| 18> end
| 19> 
| 20> * xyz 0 2
| 21> Mo 0.000000 0.000000 0.000000
| 22> N 0.000000 -0.000000 2.216533
| 23> N -0.285171 0.004718 -2.279534
| 24> N 2.004311 0.474895 0.316334
| 25> N -0.518640 -1.927117 0.328953
| 26> N -1.436837 1.399372 0.350965
| 27> C 2.970024 0.928749 -0.594152
| 28> C -0.581237 -2.365423 1.743326
| 29> C -0.830393 -1.164002 2.652054
| 30> C -0.582721 1.300275 2.658544
| 31> C -1.760506 1.681705 1.765676
| 32> C -2.297164 2.076237 -0.555955
| 33> C -1.863288 3.517436 -0.893714
| 34> C 2.318314 0.721784 1.731216
| 35> C 1.427336 -0.143035 2.619678
| 36> C -0.748254 -2.988987 -0.591353
| 37> C -2.225153 -3.401980 -0.777574
| 38> C 4.230037 0.039526 -0.716681
| 39> H 3.306753 1.968583 -0.362264
| 40> H -0.884911 1.257688 3.734853
| 41> H 0.214347 2.063803 2.551589
| 42> H -1.987450 2.762476 1.926932
| 43> H -2.688755 1.130205 2.070077
| 44> H 1.560266 0.116824 3.699429
| 45> H 1.702564 -1.208656 2.481159
| 46> H -1.891664 -0.853055 2.556872
| 47> H -0.634431 -1.411885 3.724765
| 48> H -1.396483 -3.106776 1.917960
| 49> H 0.368415 -2.890826 2.024018
| 50> H -1.174880 0.491053 -2.522161
| 51> H 0.462152 0.518729 -2.788176
| 52> H -0.336996 -0.936202 -2.722830
| 53> H 2.201169 1.801001 2.006636
| 54> H 3.382951 0.463776 1.952892
| 55> H 2.515735 0.996716 -1.600586
| 56> H -3.345231 2.108265 -0.176930
| 57> H -2.372707 1.512731 -1.505640
| 58> H -0.168591 -3.895865 -0.302868
| 59> H -0.343914 -2.702078 -1.579029
| 60> H -2.820366 -2.544804 -1.127277
| 61> H -2.321620 -4.218722 -1.511452
| 62> H -2.669196 -3.751571 0.166806
| 63> H -1.822879 4.142017 0.011595
| 64> H -0.857324 3.512842 -1.339810
| 65> H -2.563100 3.993966 -1.599621
| 66> H 4.935889 0.454691 -1.454255
| 67> H 4.763546 -0.040601 0.242620
| 68> H 3.947836 -0.976362 -1.030904
| 69> *
| 70> 
| 71>                          ****END OF INPUT****
================================================================================

                       ****************************
                       * Single Point Calculation *
                       ****************************

---------------------------------
CARTESIAN COORDINATES (ANGSTROEM)
---------------------------------
  Mo     0.000000    0.000000    0.000000
  N      0.000000   -0.000000    2.216533
  N     -0.285171    0.004718   -2.279534
  N      2.004311    0.474895    0.316334
  N     -0.518640   -1.927117    0.328953
  N     -1.436837    1.399372    0.350965
  C      2.970024    0.928749   -0.594152
  C     -0.581237   -2.365423    1.743326
  C     -0.830393   -1.164002    2.652054
  C     -0.582721    1.300275    2.658544
  C     -1.760506    1.681705    1.765676
  C     -2.297164    2.076237   -0.555955
  C     -1.863288    3.517436   -0.893714
  C      2.318314    0.721784    1.731216
  C      1.427336   -0.143035    2.619678
  C     -0.748254   -2.988987   -0.591353
  C     -2.225153   -3.401980   -0.777574
  C      4.230037    0.039526   -0.716681
  H      3.306753    1.968583   -0.362264
  H     -0.884911    1.257688    3.734853
  H      0.214347    2.063803    2.551589
  H     -1.987450    2.762476    1.926932
  H     -2.688755    1.130205    2.070077
  H      1.560266    0.116824    3.699429
  H      1.702564   -1.208656    2.481159
  H     -1.891664   -0.853055    2.556872
  H     -0.634431   -1.411885    3.724765
  H     -1.396483   -3.106776    1.917960
  H      0.368415   -2.890826    2.024018
  H     -1.174880    0.491053   -2.522161
  H      0.462152    0.518729   -2.788176
  H     -0.336996   -0.936202   -2.722830
  H      2.201169    1.801001    2.006636
  H      3.382951    0.463776    1.952892
  H      2.515735    0.996716   -1.600586
  H     -3.345231    2.108265   -0.176930
  H     -2.372707    1.512731   -1.505640
  H     -0.168591   -3.895865   -0.302868
  H     -0.343914   -2.702078   -1.579029
  H     -2.820366   -2.544804   -1.127277
  H     -2.321620   -4.218722   -1.511452
  H     -2.669196   -3.751571    0.166806
  H     -1.822879    4.142017    0.011595
  H     -0.857324    3.512842   -1.339810
  H     -2.563100    3.993966   -1.599621
  H      4.935889    0.454691   -1.454255
  H      4.763546   -0.040601    0.242620
  H      3.947836   -0.976362   -1.030904

----------------------------
CARTESIAN COORDINATES (A.U.)
----------------------------
  NO LB      ZA    FRAG     MASS         X           Y           Z
   0 Mo   42.0000    0    95.940    0.000000    0.000000    0.000000
   1 N     7.0000    0    14.007    0.000000   -0.000000    4.188640
   2 N     7.0000    0    14.007   -0.538895    0.008916   -4.307695
   3 N     7.0000    0    14.007    3.787599    0.897421    0.597785
   4 N     7.0000    0    14.007   -0.980088   -3.641723    0.621631
   5 N     7.0000    0    14.007   -2.715228    2.644430    0.663228
   6 C     6.0000    0    12.011    5.612532    1.755081   -1.122785
   7 C     6.0000    0    12.011   -1.098379   -4.470002    3.294409
   8 C     6.0000    0    12.011   -1.569215   -2.199645    5.011656
   9 C     6.0000    0    12.011   -1.101183    2.457164    5.023920
  10 C     6.0000    0    12.011   -3.326874    3.177962    3.336644
  11 C     6.0000    0    12.011   -4.341011    3.923519   -1.050603
  12 C     6.0000    0    12.011   -3.521104    6.646991   -1.688875
  13 C     6.0000    0    12.011    4.380979    1.363974    3.271524
  14 C     6.0000    0    12.011    2.697274   -0.270297    4.950474
  15 C     6.0000    0    12.011   -1.413995   -5.648367   -1.117495
  16 C     6.0000    0    12.011   -4.204930   -6.428811   -1.469402
  17 C     6.0000    0    12.011    7.993611    0.074693   -1.354331
  18 H     1.0000    0     1.008    6.248858    3.720083   -0.684580
  19 H     1.0000    0     1.008   -1.672239    2.376686    7.057849
  20 H     1.0000    0     1.008    0.405057    3.900022    4.821804
  21 H     1.0000    0     1.008   -3.755736    5.220323    3.641374
  22 H     1.0000    0     1.008   -5.081011    2.135778    3.911879
  23 H     1.0000    0     1.008    2.948475    0.220765    6.990908
  24 H     1.0000    0     1.008    3.217380   -2.284029    4.688711
  25 H     1.0000    0     1.008   -3.574727   -1.612040    4.831788
  26 H     1.0000    0     1.008   -1.198901   -2.668076    7.038786
  27 H     1.0000    0     1.008   -2.638970   -5.870956    3.624419
  28 H     1.0000    0     1.008    0.696203   -5.462869    3.824840
  29 H     1.0000    0     1.008   -2.220201    0.927956   -4.766194
  30 H     1.0000    0     1.008    0.873341    0.980256   -5.268889
  31 H     1.0000    0     1.008   -0.636830   -1.769165   -5.145403
  32 H     1.0000    0     1.008    4.159607    3.403399    3.791992
  33 H     1.0000    0     1.008    6.392851    0.876410    3.690431
  34 H     1.0000    0     1.008    4.754050    1.883520   -3.024669
  35 H     1.0000    0     1.008   -6.321570    3.984043   -0.334349
  36 H     1.0000    0     1.008   -4.483766    2.858647   -2.845247
  37 H     1.0000    0     1.008   -0.318591   -7.362118   -0.572338
  38 H     1.0000    0     1.008   -0.649903   -5.106187   -2.983932
  39 H     1.0000    0     1.008   -5.329719   -4.808983   -2.130245
  40 H     1.0000    0     1.008   -4.387226   -7.972229   -2.856230
  41 H     1.0000    0     1.008   -5.044049   -7.089442    0.315218
  42 H     1.0000    0     1.008   -3.444742    7.827278    0.021911
  43 H     1.0000    0     1.008   -1.620108    6.638309   -2.531874
  44 H     1.0000    0     1.008   -4.843557    7.547502   -3.022846
  45 H     1.0000    0     1.008    9.327478    0.859241   -2.748144
  46 H     1.0000    0     1.008    9.001797   -0.076725    0.458485
  47 H     1.0000    0     1.008    7.460329   -1.845057   -1.948126

--------------------------------
INTERNAL COORDINATES (ANGSTROEM)
--------------------------------
 Mo     0   0   0     0.000000000000     0.00000000     0.00000000
 N      1   0   0     2.216533000000     0.00000000     0.00000000
 N      1   2   0     2.297307122681   172.86834441     0.00000000
 N      1   2   3     2.083951785743    81.26902123   165.72249114
 N      1   2   4     2.022616487992    80.63998886   118.39263367
 N      1   2   5     2.036152987911    80.07454658   119.18022743
 C      4   1   2     1.402700897512   129.59520586   191.68867420
 C      5   1   2     1.482053142493   116.60386069   357.68785316
 C      2   1   5     1.494701218269   106.94039068   339.55910211
 C      2   1   5     1.491862112793   107.23439182   219.20260422
 C      6   1   2     1.478472440721   116.78598216   358.97688549
 C      6   1   2     1.421552904944   130.11612627   186.09137646
 C     12   6   1     1.542525229310   114.47733928   258.48690388
 C      4   1   2     1.470184728615   112.94031639   352.87876467
 C      2   1   5     1.490058038852   105.69738900    99.34039420
 C      5   1   2     1.423816568078   130.30129276   182.86284624
 C     16   5   1     1.544821068956   115.56104660   252.99785966
 C      7   4   1     1.547049986180   115.22430325   238.06689049
 H      7   4   1     1.117324130027   111.95566365   114.39079396
 H     10   2   1     1.118737463460   110.93901652   163.70436124
 H     10   2   1     1.108932719074   106.90443279   281.52632466
 H     11   6   1     1.116052432063   111.57377631   143.60447374
 H     11   6   1     1.121810333703   110.29862468   260.61931817
 H     15   2   1     1.118507624821   110.65396947   164.94706929
 H     15   2   1     1.109272771227   107.22360725   282.88082998
 H      9   2   1     1.109974677808   106.74042539   280.67425371
 H      9   2   1     1.118282601427   110.77940484   163.12596099
 H      8   5   1     1.115673493940   112.13317535   144.85208827
 H      8   5   1     1.121015268574   109.98573932   261.99633991
 H      3   1   5     1.042579348556   109.74332724   103.57811559
 H      3   1   5     1.039911370557   113.39980002   221.39030249
 H      3   1   5     1.041406558766   115.25825843   343.69766187
 H     14   4   1     1.119950204480   112.09563598   269.34809646
 H     14   4   1     1.117658408821   110.82783466   151.31138259
 H      7   4   1     1.106303486827   109.12725219   358.84375355
 H     12   6   1     1.114957478964   111.45026845   135.31235992
 H     12   6   1     1.106863747762   110.26006480    20.32938722
 H     16   5   1     1.114298207698   110.83848742   129.57054606
 H     16   5   1     1.105129626269   108.96841869    14.96738722
 H     17  16   5     1.100600471813   110.31125239    58.81922886
 H     17  16   5     1.102247837620   111.22449752   179.33318790
 H     17  16   5     1.100564235985   111.54367923   299.33705466
 H     13  12   6     1.100599245104   111.12656910   300.12860844
 H     13  12   6     1.100448233834   109.99809842    59.17039115
 H     13  12   6     1.102325890512   111.44146218   179.94739956
 H     18   7   4     1.102090934817   110.98448483   179.50985381
 H     18   7   4     1.100595565051   111.56887406   299.34196257
 H     18   7   4     1.100182678774   110.14853464    59.05089040

---------------------------
INTERNAL COORDINATES (A.U.)
---------------------------
 Mo     0   0   0     0.000000000000     0.00000000     0.00000000
 N      1   0   0     4.188640336799     0.00000000     0.00000000
 N      1   2   0     4.341281307374   172.86834441     0.00000000
 N      1   2   3     3.938098151351    81.26902123   165.72249114
 N      1   2   4     3.822191236259    80.63998886   118.39263367
 N      1   2   5     3.847771513917    80.07454658   119.18022743
 C      4   1   2     2.650720544103   129.59520586   191.68867420
 C      5   1   2     2.800674555230   116.60386069   357.68785316
 C      2   1   5     2.824575954566   106.94039068   339.55910211
 C      2   1   5     2.819210822752   107.23439182   219.20260422
 C      6   1   2     2.793908009512   116.78598216   358.97688549
 C      6   1   2     2.686345675224   130.11612627   186.09137646
 C     12   6   1     2.914950238060   114.47733928   258.48690388
 C      4   1   2     2.778246503356   112.94031639   352.87876467
 C      2   1   5     2.815801617077   105.69738900    99.34039420
 C      5   1   2     2.690623378606   130.30129276   182.86284624
 C     16   5   1     2.919288746239   115.56104660   252.99785966
 C      7   4   1     2.923500789367   115.22430325   238.06689049
 H      7   4   1     2.111436608573   111.95566365   114.39079396
 H     10   2   1     2.114107421698   110.93901652   163.70436124
 H     10   2   1     2.095579139995   106.90443279   281.52632466
 H     11   6   1     2.109033447695   111.57377631   143.60447374
 H     11   6   1     2.119914304901   110.29862468   260.61931817
 H     15   2   1     2.113673089614   110.65396947   164.94706929
 H     15   2   1     2.096221745435   107.22360725   282.88082998
 H      9   2   1     2.097548156644   106.74042539   280.67425371
 H      9   2   1     2.113247857026   110.77940484   163.12596099
 H      8   5   1     2.108317358422   112.13317535   144.85208827
 H      8   5   1     2.118411849550   109.98573932   261.99633991
 H      3   1   5     1.970189441652   109.74332724   103.57811559
 H      3   1   5     1.965147693904   113.39980002   221.39030249
 H      3   1   5     1.967973190137   115.25825843   343.69766187
 H     14   4   1     2.116399170096   112.09563598   269.34809646
 H     14   4   1     2.112068303946   110.82783466   151.31138259
 H      7   4   1     2.090610611106   109.12725219   358.84375355
 H     12   6   1     2.106964286209   111.45026845   135.31235992
 H     12   6   1     2.091669350836   110.26006480    20.32938722
 H     16   5   1     2.105718444068   110.83848742   129.57054606
 H     16   5   1     2.088392336131   108.96841869    14.96738722
 H     17  16   5     2.079833474590   110.31125239    58.81922886
 H     17  16   5     2.082946544808   111.22449752   179.33318790
 H     17  16   5     2.079764998801   111.54367923   299.33705466
 H     13  12   6     2.079831156447   111.12656910   300.12860844
 H     13  12   6     2.079545786503   109.99809842    59.17039115
 H     13  12   6     2.083094043398   111.44146218   179.94739956
 H     18   7   4     2.082650041481   110.98448483   179.50985381
 H     18   7   4     2.079824202156   111.56887406   299.34196257
 H     18   7   4     2.079043960166   110.14853464    59.05089040

---------------------
BASIS SET INFORMATION
---------------------
There are 4 groups of distinct atoms

 Group   1 Type Mo  : 22s15p9d1f contracted to 15s10p5d1f pattern {811111111111111/6111111111/51111/1}
 Group   2 Type N   : 11s6p2d1f contracted to 6s3p2d1f pattern {611111/411/11/1}
 Group   3 Type C   : 11s6p2d1f contracted to 6s3p2d1f pattern {611111/411/11/1}
 Group   4 Type H   : 5s1p contracted to 3s1p pattern {311/1}



           ************************************************************
           *        Program running with 8 parallel MPI-processes     *
           *              working on a common directory               *
           ************************************************************
------------------------------------------------------------------------------
                           ORCA GTO INTEGRAL CALCULATION
------------------------------------------------------------------------------
------------------------------------------------------------------------------
                   ___                                                        
                  /   \      - P O W E R E D   B Y -                         
                 /     \                                                     
                 |  |  |   _    _      __       _____    __    __             
                 |  |  |  | |  | |    /  \     |  _  \  |  |  /  |          
                  \  \/   | |  | |   /    \    | | | |  |  | /  /          
                 / \  \   | |__| |  /  /\  \   | |_| |  |  |/  /          
                |  |  |   |  __  | /  /__\  \  |    /   |      \           
                |  |  |   | |  | | |   __   |  |    \   |  |\   \          
                \     /   | |  | | |  |  |  |  | |\  \  |  | \   \       
                 \___/    |_|  |_| |__|  |__|  |_| \__\ |__|  \__/        
                                                                              
                      - O R C A' S   B I G   F R I E N D -                    
                                      &                                       
                       - I N T E G R A L  F E E D E R -                       
                                                                              
 v1 FN, 2020, v2 2021                                                         
------------------------------------------------------------------------------


----------------------
SHARK INTEGRAL PACKAGE
----------------------

Number of atoms                             ...     48
Number of basis functions                   ...    801
Number of shells                            ...    355
Maximum angular momentum                    ...      3
Integral batch strategy                     ... SHARK/LIBINT Hybrid
RI-J (if used) integral strategy            ... SPLIT-RIJ (Revised 2003 algorithm where possible)
Printlevel                                  ...      1
Contraction scheme used                     ... SEGMENTED contraction
Prescreening option                         ... SCHWARTZ
   Thresh                                   ... 1.000e-10
   Tcut                                     ... 1.000e-11
   Tpresel                                  ... 1.000e-11 
Coulomb Range Separation                    ... NOT USED
Exchange Range Separation                   ... NOT USED
Finite Nucleus Model                        ... NOT USED
Auxiliary Coulomb fitting basis             ... NOT available
Auxiliary J/K fitting basis                 ... NOT available
Auxiliary Correlation fitting basis         ... NOT available
Auxiliary 'external' fitting basis          ... NOT available

Calculating pre-screening integrals         ... done (  0.1 sec) Dimension = 355
Organizing shell pair data                  ... done (  0.4 sec)
Shell pair information
Total number of shell pairs                 ...     63190
Shell pairs after pre-screening             ...     45477
Total number of primitive shell pairs       ...    161528
Primitive shell pairs kept                  ...     80816
          la=0 lb=0:  14954 shell pairs
          la=1 lb=0:  13623 shell pairs
          la=1 lb=1:   3184 shell pairs
          la=2 lb=0:   5879 shell pairs
          la=2 lb=1:   2786 shell pairs
          la=2 lb=2:    643 shell pairs
          la=3 lb=0:   2543 shell pairs
          la=3 lb=1:   1196 shell pairs
          la=3 lb=2:    549 shell pairs
          la=3 lb=3:    120 shell pairs

Calculating one electron integrals          ... done (  0.1 sec)
Calculating Nuclear repulsion               ... done (  0.0 sec) ENN=   2397.213496299911 Eh

-------------------
DFT GRID GENERATION
-------------------

General Integration Accuracy     IntAcc      ... 4.388
Radial Grid Type                 RadialGrid  ... OptM3 with GC (2021)
Angular Grid (max. ang.)         AngularGrid ... 4 (Lebedev-302)
Angular grid pruning method      GridPruning ... 4 (adaptive)
Weight generation scheme         WeightScheme... mBecke (2022)
Basis function cutoff            BFCut       ... 1.0000e-10
Integration weight cutoff        WCut        ... 1.0000e-14
Partially contracted basis set               ... off
Rotationally invariant grid construction     ... off
Angular grids for H and He will be reduced by one unit
Core-polarized basis detected: some atoms will have their core
                               angular grid increased.
Steep s-basis detected: some atoms will have their radial
                        grid points doubled.

Total number of grid points                  ...   215816
Total number of batches                      ...     3399
Average number of points per batch           ...       63
Average number of grid points per atom       ...     4496
Initializing poperty integral containers    ... done (  0.0 sec)

SHARK setup successfully completed in   2.8 seconds

Maximum memory used throughout the entire GTOINT-calculation: 113.6 MB


           ************************************************************
           *        Program running with 8 parallel MPI-processes     *
           *              working on a common directory               *
           ************************************************************
------------------------------------------------------------------------------
                          ORCA RELATIVISTIC HAMILTONIAN
------------------------------------------------------------------------------

Relativistic Method            ... DKH
Order of DKH treatment         ...   2
Treatment of potential         ... V(e,N)
Eps parameter for DKH          ...   0.00000000010000
Nucleus model                  ... Point Nucleus
Speed of light used            ... 137.03598950000000


            ************************************************
            *        DOUGLAS-KROLL-HESS HAMILTONIAN        *
            *   Programmed by FN according to literature   *
            *        procedures. Special thanks to         *
            *       B.A. Hess, M. Reiher and A. Wolf       *
            *     University Erlangen-Nuernberg/Bonn       *
            ************************************************

Uncontracting the basis (first version)        ... done
Number of contracted basis functions           ...  801
Number of uncontracted basis functions         ... 1141
Initializing the DKH file                      ... done
Calculating the relativistic integrals         ... done
Storing DKH matrices                           ... done
Code used for DKH trafo                        ... ORCA
Computing the DKH transformation               ... done
Storing the transformation variables           ... done
Transforming V and pVp to p**2 space           ... done
First transformation of V and pVp              ... done
Second transformation of Veff                  ... done
Adding kinetic energy                          ... done
Back transformation of Veff to r-space         ... done
Recovering DKH matrices                        ... done
Recontracting the H-matrix (first version)     ... done
Computing the DKH correction to the H-matrix   ... done
Reading the original H-matrix                  ... done
Adding DKH correction to the H-matrix          ... done
Storing the new modified H-matrix              ... done

Maximum memory used throughout the entire REL-calculation: 161.8 MB


           ************************************************************
           *        Program running with 8 parallel MPI-processes     *
           *              working on a common directory               *
           ************************************************************

------------------------------------------------------------------------------
                         ORCA PROPERTY INTEGRAL CALCULATIONS
------------------------------------------------------------------------------

GBWName                                   ... mol.gbw
Number of atoms                           ...     48
Number of basis functions                 ...    801
Max core memory                           ...   1024 MB

Dipole integrals                          ... YES
Quadrupole integrals                      ...  NO
Linear Momentum integrals                 ...  NO
Angular Momentum integrals                ...  NO
Higher Moments length integrals           ...  NO
Higher Moments velocity integrals         ...  NO
Kinetic energy integrals                  ...  NO
GIAO Right Hand Sides                     ...  NO
SOC integrals                             ...  NO
EPR diamagnetic integrals (GIAO)          ...  NO
EPR gauge integrals                       ...  NO
Field gradient integrals                  ...  NO (   0 nuclei)
Spin-dipole/Fermi contact integrals       ...  NO (   0 nuclei)
Nucleus-orbit integrals                   ...  NO (   0 nuclei)
Geometric perturbations                   ...  NO (  48 nuclei)
Electric origin: ( -0.0197,  0.0140,  0.7284) 
Magnetic origin: (  0.0000,  0.0000,  0.0000) 

Calculating integrals                     ... Electric Dipole (Length)     done (  0.1 sec)

Property integrals calculated in   0.1 sec

Maximum memory used throughout the entire PROPINT-calculation: 78.3 MB


           ************************************************************
           *        Program running with 8 parallel MPI-processes     *
           *              working on a common directory               *
           ************************************************************
-------------------------------------------------------------------------------
                                 ORCA SCF
-------------------------------------------------------------------------------

------------
SCF SETTINGS
------------
Hamiltonian:
 Ab initio Hamiltonian  Method          .... Hartree-Fock(GTOs)

Relativistic Settings:
 Scalar relativistic method             .... Douglas-Kroll-Hess
 Order of DKH procedure    Order        ....    2
 Mode of DKH-treatment                  .... V=V(e,N)
 Speed of light used       Velit        ....       137.035989
 Cutoff-constant           Eps          ....            1e-10 


General Settings:
 Integral files         IntName         .... mol
 Hartree-Fock type      HFTyp           .... CASSCF
 Total Charge           Charge          ....    0
 Multiplicity           Mult            ....    2
 Number of Electrons    NEL             ....  179
 Basis Dimension        Dim             ....  801
 Nuclear Repulsion      ENuc            ....   2397.2134962999 Eh


Diagonalization of the overlap matrix:
Smallest eigenvalue                        ... 8.057e-05
Time for diagonalization                   ...    0.184 sec
Threshold for overlap eigenvalues          ... 1.000e-08
Number of eigenvalues below threshold      ... 0
Time for construction of square roots      ...    0.137 sec
Total time needed                          ...    0.325 sec

---------------------
INITIAL GUESS: MOREAD
---------------------
Guess MOs are being read from file: mol.blockcanon
Input Geometry matches current geometry (good)
Input basis set matches current basis set (good)
MOs were renormalized
Gram-Schmidt orthogonalization of all MOs with pivot on actives
                      ------------------
                      INITIAL GUESS DONE (  11.6 sec)
                      ------------------


 ... the calculation is a CASSCF calculation -I'm leaving here GOOD LUCK!!!



           ************************************************************
           *        Program running with 8 parallel MPI-processes     *
           *              working on a common directory               *
           ************************************************************
-------------------------------------------------------------------------------
                              ORCA-CASSCF
-------------------------------------------------------------------------------

Setting up the integral package     ... done
Building the CAS space              ... done (10 configurations for Mult=4)
Building the CAS space              ... done (30 configurations for Mult=2)

SYSTEM-SPECIFIC SETTINGS:
Number of active electrons          ...    3
Number of active orbitals           ...    5
Total number of electrons           ...  179
Total number of orbitals            ...  801

Determined orbital ranges:
   Internal       0 -   87 (  88 orbitals)
   Active        88 -   92 (   5 orbitals)
   External      93 -  800 ( 708 orbitals)
Number of rotation parameters      ...  66284

CI-STEP:
CI strategy                         ... General CI
Number of multiplicity blocks       ...    2
BLOCK  0 WEIGHT=   0.5000
  Multiplicity                      ...    4
  #(Configurations)                 ...   10
  #(CSFs)                           ...   10
  #(Roots)                          ...   10
    ROOT=0 WEIGHT=    0.050000
    ROOT=1 WEIGHT=    0.050000
    ROOT=2 WEIGHT=    0.050000
    ROOT=3 WEIGHT=    0.050000
    ROOT=4 WEIGHT=    0.050000
    ROOT=5 WEIGHT=    0.050000
    ROOT=6 WEIGHT=    0.050000
    ROOT=7 WEIGHT=    0.050000
    ROOT=8 WEIGHT=    0.050000
    ROOT=9 WEIGHT=    0.050000

BLOCK  1 WEIGHT=   0.5000
  Multiplicity                      ...    2
  #(Configurations)                 ...   30
  #(CSFs)                           ...   40
  #(Roots)                          ...   40
    ROOT=0 WEIGHT=    0.012500
    ROOT=1 WEIGHT=    0.012500
    ROOT=2 WEIGHT=    0.012500
    ROOT=3 WEIGHT=    0.012500
    ROOT=4 WEIGHT=    0.012500
    ROOT=5 WEIGHT=    0.012500
    ROOT=6 WEIGHT=    0.012500
    ROOT=7 WEIGHT=    0.012500
    ROOT=8 WEIGHT=    0.012500
    ROOT=9 WEIGHT=    0.012500
    ROOT=10 WEIGHT=    0.012500
    ROOT=11 WEIGHT=    0.012500
    ROOT=12 WEIGHT=    0.012500
    ROOT=13 WEIGHT=    0.012500
    ROOT=14 WEIGHT=    0.012500
    ROOT=15 WEIGHT=    0.012500
    ROOT=16 WEIGHT=    0.012500
    ROOT=17 WEIGHT=    0.012500
    ROOT=18 WEIGHT=    0.012500
    ROOT=19 WEIGHT=    0.012500
    ROOT=20 WEIGHT=    0.012500
    ROOT=21 WEIGHT=    0.012500
    ROOT=22 WEIGHT=    0.012500
    ROOT=23 WEIGHT=    0.012500
    ROOT=24 WEIGHT=    0.012500
    ROOT=25 WEIGHT=    0.012500
    ROOT=26 WEIGHT=    0.012500
    ROOT=27 WEIGHT=    0.012500
    ROOT=28 WEIGHT=    0.012500
    ROOT=29 WEIGHT=    0.012500
    ROOT=30 WEIGHT=    0.012500
    ROOT=31 WEIGHT=    0.012500
    ROOT=32 WEIGHT=    0.012500
    ROOT=33 WEIGHT=    0.012500
    ROOT=34 WEIGHT=    0.012500
    ROOT=35 WEIGHT=    0.012500
    ROOT=36 WEIGHT=    0.012500
    ROOT=37 WEIGHT=    0.012500
    ROOT=38 WEIGHT=    0.012500
    ROOT=39 WEIGHT=    0.012500

  PrintLevel                        ...    1
  N(GuessMat)                       ...       512
  MaxDim(CI)                        ...        10
  MaxIter(CI)                       ...        64
  Energy Tolerance CI               ...  1.00e-08
  Residual Tolerance CI             ...  1.00e-08
  Shift(CI)                         ...  1.00e-04

INTEGRAL-TRANSFORMATION-STEP:
  Algorithm                         ... EXACT

ORBITAL-IMPROVEMENT-STEP:
  MaxMacroIter 1 detected                >>> CAS-CI. Check your FINAL ORBITAL options!

SCF-SETTINGS:
  Incremental                       ... on
  RIJCOSX approximation             ... off
  RI-JK approximation               ... off
  AO integral handling              ... DIRECT
  Integral Neglect Thresh           ...  1.00e-10
  Primitive cutoff TCut             ...  1.00e-11
  Energy convergence tolerance      ...  1.00e-07
  Orbital gradient convergence      ...  1.00e-03
  Max. number of iterations         ...         1  


FINAL ORBITALS:
  Active   Orbitals                 ... unchanged 
  Internal Orbitals                 ... unchanged 
  External Orbitals                 ... unchanged 

------------------
CAS-SCF ITERATIONS
------------------


MACRO-ITERATION   1: 
   --- Inactive Energy E0 = -4787.98685328 Eh
   --- All densities will be recomputed
CI-ITERATION   0: 
 -4790.201838495   0.000000000005 (    0.00)
 -4790.201434494   0.000000000003
 -4790.147656936   0.000000000001
 -4790.093074655   0.000000000006
 -4790.087812939   0.000000000005
 -4790.074668887   0.000000000009
 -4790.073341296   0.000000000004
 -4790.048468351   0.000000000012
 -4790.044672613   0.000000000007
 -4789.965989870   0.000000000000
   CI-PROBLEM SOLVED
   DENSITIES MADE
CI-ITERATION   0: 
 -4790.224677333   0.000000000012 (    0.00)
 -4790.222209019   0.000000000007
 -4790.150431619   0.000000000008
 -4790.150105613   0.000000000010
 -4790.146091570   0.000000000007
 -4790.145874354   0.000000000007
 -4790.143441858   0.000000000011
 -4790.137098094   0.000000000008
 -4790.117115505   0.000000000007
 -4790.116740353   0.000000000007
 -4790.098286139   0.000000000007
 -4790.069536016   0.000000000011
 -4790.069068847   0.000000000006
 -4790.048883423   0.000000000010
 -4790.045746761   0.000000000009
 -4790.043187763   0.000000000006
 -4790.041432480   0.000000000005
 -4790.041040637   0.000000000007
 -4790.034566177   0.000000000006
 -4790.033391054   0.000000000009
 -4790.031308718   0.000000000005
 -4790.027924999   0.000000000012
 -4790.021009995   0.000000000007
 -4790.019368885   0.000000000009
 -4790.018553595   0.000000000008
 -4790.014925875   0.000000000010
 -4789.997056857   0.000000000006
 -4789.995289370   0.000000000008
 -4789.992729204   0.000000000005
 -4789.987258847   0.000000000006
 -4789.926463265   0.000000000007
 -4789.925511375   0.000000000006
 -4789.922304567   0.000000000008
 -4789.918866984   0.000000000008
 -4789.907035321   0.000000000007
 -4789.902174701   0.000000000006
 -4789.902102588   0.000000000006
 -4789.890518453   0.000000000008
 -4789.858328462   0.000000000008
 -4789.857629875   0.000000000006
   CI-PROBLEM SOLVED
   DENSITIES MADE

                 <<<<<<<<<<<<<<<<<<INITIAL CI STATE CHECK>>>>>>>>>>>>>>>>>>

BLOCK  0 MULT= 4 NROOTS=10 
ROOT   0:  E=   -4790.2018384946 Eh
      0.99699 [     1]: 11010
ROOT   1:  E=   -4790.2014344935 Eh  0.011 eV     88.7 cm**-1
      0.99814 [     0]: 11100
ROOT   2:  E=   -4790.1476569360 Eh  1.474 eV  11891.5 cm**-1
      0.98051 [     2]: 11001
      0.00617 [     9]: 00111
      0.00564 [     5]: 10011
      0.00538 [     7]: 01101
ROOT   3:  E=   -4790.0930746555 Eh  2.960 eV  23870.9 cm**-1
      0.69050 [     3]: 10110
      0.15143 [     4]: 10101
      0.08215 [     8]: 01011
      0.04582 [     6]: 01110
      0.01554 [     5]: 10011
      0.01436 [     7]: 01101
ROOT   4:  E=   -4790.0878129391 Eh  3.103 eV  25025.7 cm**-1
      0.59860 [     6]: 01110
      0.21802 [     5]: 10011
      0.11157 [     7]: 01101
      0.03565 [     3]: 10110
      0.01770 [     8]: 01011
      0.01739 [     4]: 10101
ROOT   5:  E=   -4790.0746688873 Eh  3.460 eV  27910.5 cm**-1
      0.55104 [     8]: 01011
      0.39703 [     4]: 10101
      0.03430 [     5]: 10011
      0.01550 [     7]: 01101
ROOT   6:  E=   -4790.0733412957 Eh  3.497 eV  28201.9 cm**-1
      0.56185 [     7]: 01101
      0.37393 [     5]: 10011
      0.03764 [     4]: 10101
      0.01307 [     8]: 01011
      0.01094 [     2]: 11001
ROOT   7:  E=   -4790.0484683508 Eh  4.173 eV  33660.9 cm**-1
      0.34617 [     5]: 10011
      0.31192 [     6]: 01110
      0.26579 [     7]: 01101
      0.05097 [     3]: 10110
      0.02055 [     8]: 01011
      0.00447 [     4]: 10101
ROOT   8:  E=   -4790.0446726135 Eh  4.277 eV  34493.9 cm**-1
      0.39158 [     4]: 10101
      0.31507 [     8]: 01011
      0.22081 [     3]: 10110
      0.04055 [     6]: 01110
      0.02547 [     7]: 01101
      0.00623 [     5]: 10011
ROOT   9:  E=   -4789.9659898698 Eh  6.418 eV  51762.8 cm**-1
      0.99348 [     9]: 00111
      0.00630 [     2]: 11001

BLOCK  1 MULT= 2 NROOTS=40 
ROOT   0:  E=   -4790.2246773334 Eh
      0.97208 [     0]: 21000
      0.00649 [    17]: 01200
      0.00600 [    20]: 01020
      0.00595 [     9]: 10110
      0.00387 [     5]: 11100
ROOT   1:  E=   -4790.2222090189 Eh  0.067 eV    541.7 cm**-1
      0.97191 [     4]: 12000
      0.00629 [    11]: 10020
      0.00594 [    18]: 01110
      0.00560 [     8]: 10200
      0.00409 [    14]: 02100
ROOT   2:  E=   -4790.1504316192 Eh  2.020 eV  16295.1 cm**-1
      0.67015 [     6]: 11010
      0.18687 [     5]: 11100
      0.09606 [     1]: 20100
      0.02140 [    15]: 02010
      0.00922 [    14]: 02100
      0.00705 [     7]: 11001
      0.00485 [     2]: 20010
ROOT   3:  E=   -4790.1501056129 Eh  2.029 eV  16366.6 cm**-1
      0.65465 [     5]: 11100
      0.17998 [     6]: 11010
      0.08761 [    15]: 02010
      0.03451 [     1]: 20100
      0.02524 [     2]: 20010
      0.00806 [    14]: 02100
      0.00389 [     3]: 20001
ROOT   4:  E=   -4790.1460915701 Eh  2.138 eV  17247.6 cm**-1
      0.32284 [     6]: 11010
      0.25130 [     5]: 11100
      0.18197 [     2]: 20010
      0.08636 [    15]: 02010
      0.08274 [    14]: 02100
      0.06787 [     1]: 20100
ROOT   5:  E=   -4790.1458743538 Eh  2.144 eV  17295.3 cm**-1
      0.33530 [     6]: 11010
      0.30395 [     5]: 11100
      0.13840 [     2]: 20010
      0.10044 [    14]: 02100
      0.07219 [     1]: 20100
      0.03903 [    15]: 02010
      0.00279 [     0]: 21000
ROOT   6:  E=   -4790.1434418576 Eh  2.211 eV  17829.1 cm**-1
      0.36764 [     5]: 11100
      0.19738 [     2]: 20010
      0.11667 [     6]: 11010
      0.08413 [    15]: 02010
      0.07069 [     1]: 20100
      0.06526 [    14]: 02100
      0.05605 [     3]: 20001
      0.04143 [    16]: 02001
ROOT   7:  E=   -4790.1370980938 Eh  2.383 eV  19221.4 cm**-1
      0.27592 [     6]: 11010
      0.18618 [    14]: 02100
      0.17574 [     1]: 20100
      0.13514 [     5]: 11100
      0.11045 [     7]: 11001
      0.06657 [     2]: 20010
      0.04701 [    15]: 02010
ROOT   8:  E=   -4790.1171155045 Eh  2.927 eV  23607.1 cm**-1
      0.32806 [     7]: 11001
      0.31606 [    14]: 02100
      0.26012 [     1]: 20100
      0.03523 [     3]: 20001
      0.02230 [    16]: 02001
      0.01241 [    15]: 02010
      0.00819 [     2]: 20010
      0.00770 [    25]: 00120
      0.00537 [     6]: 11010
ROOT   9:  E=   -4790.1167403528 Eh  2.937 eV  23689.4 cm**-1
      0.36054 [    15]: 02010
      0.21233 [     2]: 20010
      0.20817 [    16]: 02001
      0.12164 [     3]: 20001
      0.05768 [     7]: 11001
      0.01385 [    14]: 02100
      0.00794 [     1]: 20100
      0.00767 [    23]: 00210
      0.00641 [     5]: 11100
ROOT  10:  E=   -4790.0982861391 Eh  3.439 eV  27739.7 cm**-1
      0.87362 [     7]: 11001
      0.03790 [     6]: 11010
      0.02477 [     1]: 20100
      0.01564 [     5]: 11100
      0.01363 [    14]: 02100
      0.00997 [    15]: 02010
      0.00829 [    26]: 00111
      0.00648 [     2]: 20010
      0.00406 [    19]: 01101
      0.00373 [    12]: 10011
ROOT  11:  E=   -4790.0695360164 Eh  4.222 eV  34049.6 cm**-1
      0.52277 [     7]: 11001
      0.16566 [    14]: 02100
      0.15917 [     1]: 20100
      0.04327 [     3]: 20001
      0.02667 [     6]: 11010
      0.02422 [    16]: 02001
      0.01286 [    15]: 02010
      0.00876 [     2]: 20010
      0.00782 [    12]: 10011
      0.00755 [    25]: 00120
      0.00750 [    27]: 00102
      0.00722 [    19]: 01101
ROOT  12:  E=   -4790.0690688472 Eh  4.234 eV  34152.1 cm**-1
      0.29037 [     3]: 20001
      0.24253 [    16]: 02001
      0.19682 [    15]: 02010
      0.12346 [     2]: 20010
      0.06676 [     7]: 11001
      0.02683 [     5]: 11100
      0.01038 [     1]: 20100
      0.00952 [    14]: 02100
      0.00743 [    23]: 00210
      0.00734 [    29]: 00012
      0.00558 [    21]: 01011
      0.00428 [     9]: 10110
      0.00426 [    10]: 10101
ROOT  13:  E=   -4790.0488834232 Eh  4.784 eV  38582.3 cm**-1
      0.57042 [     9]: 10110
      0.16812 [    10]: 10101
      0.10736 [    21]: 01011
      0.06275 [    18]: 01110
      0.03575 [    17]: 01200
      0.01669 [     8]: 10200
      0.01507 [    11]: 10020
      0.00616 [    16]: 02001
      0.00524 [     3]: 20001
      0.00358 [    20]: 01020
      0.00358 [    19]: 01101
      0.00254 [    12]: 10011
ROOT  14:  E=   -4790.0457467606 Eh  4.869 eV  39270.7 cm**-1
      0.42057 [    11]: 10020
      0.29798 [     8]: 10200
      0.10573 [    12]: 10011
      0.09009 [    19]: 01101
      0.03124 [     9]: 10110
      0.01988 [    20]: 01020
      0.01717 [    17]: 01200
      0.00423 [    10]: 10101
      0.00382 [    21]: 01011
      0.00375 [    18]: 01110
      0.00345 [     7]: 11001
ROOT  15:  E=   -4790.0431877631 Eh  4.939 eV  39832.4 cm**-1
      0.40238 [    16]: 02001
      0.39584 [     3]: 20001
      0.03177 [    28]: 00021
      0.03175 [    24]: 00201
      0.03169 [     5]: 11100
      0.02616 [     9]: 10110
      0.02544 [    15]: 02010
      0.01386 [     6]: 11010
      0.00967 [     2]: 20010
      0.00886 [    14]: 02100
      0.00635 [    17]: 01200
      0.00556 [     1]: 20100
      0.00461 [    21]: 01011
      0.00333 [     7]: 11001
ROOT  16:  E=   -4790.0414324803 Eh  4.986 eV  40217.6 cm**-1
      0.26896 [    18]: 01110
      0.21892 [    17]: 01200
      0.20449 [    20]: 01020
      0.20395 [     9]: 10110
      0.03656 [    21]: 01011
      0.02184 [    10]: 10101
      0.01702 [    12]: 10011
      0.01141 [     8]: 10200
      0.00652 [    16]: 02001
      0.00412 [    19]: 01101
ROOT  17:  E=   -4790.0410406365 Eh  4.997 eV  40303.6 cm**-1
      0.46173 [    18]: 01110
      0.16891 [    20]: 01020
      0.13231 [    17]: 01200
      0.09309 [     8]: 10200
      0.08523 [    12]: 10011
      0.01781 [    19]: 01101
      0.01176 [    10]: 10101
      0.01077 [     9]: 10110
      0.01036 [    11]: 10020
      0.00477 [    21]: 01011
ROOT  18:  E=   -4790.0345661775 Eh  5.173 eV  41724.6 cm**-1
      0.30715 [    11]: 10020
      0.26116 [     8]: 10200
      0.22938 [    18]: 01110
      0.08007 [    19]: 01101
      0.04242 [    13]: 10002
      0.01722 [    12]: 10011
      0.01671 [    10]: 10101
      0.01543 [    17]: 01200
      0.01129 [     9]: 10110
      0.00858 [    21]: 01011
      0.00428 [    20]: 01020
ROOT  19:  E=   -4790.0333910536 Eh  5.205 eV  41982.5 cm**-1
      0.61032 [     9]: 10110
      0.10312 [    10]: 10101
      0.09476 [    17]: 01200
      0.06213 [    21]: 01011
      0.04424 [    18]: 01110
      0.04061 [    20]: 01020
      0.01119 [    22]: 01002
      0.00846 [     3]: 20001
      0.00666 [    19]: 01101
      0.00470 [    12]: 10011
      0.00343 [    11]: 10020
ROOT  20:  E=   -4790.0313087180 Eh  5.262 eV  42439.5 cm**-1
      0.25424 [    21]: 01011
      0.21352 [    10]: 10101
      0.20829 [    20]: 01020
      0.20571 [    17]: 01200
      0.03253 [    12]: 10011
      0.02957 [    22]: 01002
      0.02189 [    19]: 01101
      0.00654 [    11]: 10020
      0.00607 [    16]: 02001
      0.00573 [     8]: 10200
      0.00422 [    18]: 01110
      0.00380 [     9]: 10110
      0.00295 [     0]: 21000
ROOT  21:  E=   -4790.0279249994 Eh  5.354 eV  43182.1 cm**-1
      0.35423 [    18]: 01110
      0.31743 [    12]: 10011
      0.23866 [    19]: 01101
      0.02900 [     9]: 10110
      0.02211 [    21]: 01011
      0.01922 [    10]: 10101
      0.00650 [     7]: 11001
      0.00293 [    14]: 02100
ROOT  22:  E=   -4790.0210099953 Eh  5.542 eV  44699.8 cm**-1
      0.60410 [    12]: 10011
      0.31939 [    19]: 01101
      0.02989 [    18]: 01110
      0.00930 [    17]: 01200
      0.00838 [     9]: 10110
      0.00645 [    11]: 10020
      0.00512 [     8]: 10200
      0.00464 [    21]: 01011
      0.00333 [     7]: 11001
ROOT  23:  E=   -4790.0193688853 Eh  5.587 eV  45060.0 cm**-1
      0.42427 [    10]: 10101
      0.27567 [    21]: 01011
      0.17590 [    19]: 01101
      0.03586 [    12]: 10011
      0.02031 [     9]: 10110
      0.01816 [    11]: 10020
      0.01637 [    17]: 01200
      0.01131 [    13]: 10002
      0.01116 [    18]: 01110
      0.00385 [    20]: 01020
ROOT  24:  E=   -4790.0185535953 Eh  5.609 eV  45238.9 cm**-1
      0.48961 [    19]: 01101
      0.20976 [    21]: 01011
      0.17390 [    12]: 10011
      0.04393 [    10]: 10101
      0.03279 [    13]: 10002
      0.01323 [    18]: 01110
      0.01078 [     9]: 10110
      0.00675 [    20]: 01020
      0.00619 [    11]: 10020
      0.00597 [     8]: 10200
      0.00423 [    22]: 01002
ROOT  25:  E=   -4790.0149258754 Eh  5.708 eV  46035.1 cm**-1
      0.47285 [    21]: 01011
      0.35646 [    10]: 10101
      0.09194 [    22]: 01002
      0.03404 [    19]: 01101
      0.01455 [    13]: 10002
      0.01345 [    12]: 10011
      0.00876 [     9]: 10110
      0.00443 [    17]: 01200
      0.00258 [    18]: 01110
ROOT  26:  E=   -4789.9970568574 Eh  6.194 eV  49956.9 cm**-1
      0.29024 [    18]: 01110
      0.19955 [    19]: 01101
      0.16238 [     8]: 10200
      0.09027 [    13]: 10002
      0.07779 [    12]: 10011
      0.05303 [     9]: 10110
      0.04779 [    11]: 10020
      0.02091 [    17]: 01200
      0.01843 [    20]: 01020
      0.01664 [    22]: 01002
      0.00746 [     4]: 12000
      0.00746 [    10]: 10101
      0.00259 [    21]: 01011
ROOT  27:  E=   -4789.9952893702 Eh  6.242 eV  50344.8 cm**-1
      0.25435 [     9]: 10110
      0.18004 [    20]: 01020
      0.14975 [    21]: 01011
      0.11798 [    10]: 10101
      0.10212 [    22]: 01002
      0.06197 [    17]: 01200
      0.04319 [    18]: 01110
      0.02456 [     8]: 10200
      0.02143 [    12]: 10011
      0.01760 [    13]: 10002
      0.01152 [    11]: 10020
      0.00815 [     0]: 21000
      0.00281 [    19]: 01101
ROOT  28:  E=   -4789.9927292045 Eh  6.312 eV  50906.7 cm**-1
      0.43871 [    12]: 10011
      0.24497 [    19]: 01101
      0.13195 [    18]: 01110
      0.06609 [    11]: 10020
      0.03618 [     9]: 10110
      0.02287 [     8]: 10200
      0.02037 [    17]: 01200
      0.01837 [    21]: 01011
      0.01060 [    20]: 01020
      0.00456 [    13]: 10002
      0.00354 [    10]: 10101
ROOT  29:  E=   -4789.9872588472 Eh  6.460 eV  52107.3 cm**-1
      0.42286 [    10]: 10101
      0.28758 [    21]: 01011
      0.09298 [     9]: 10110
      0.06596 [    17]: 01200
      0.04813 [    20]: 01020
      0.03204 [    18]: 01110
      0.02055 [     8]: 10200
      0.01598 [    11]: 10020
      0.00777 [    19]: 01101
ROOT  30:  E=   -4789.9264632653 Eh  8.115 eV  65450.4 cm**-1
      0.30465 [    24]: 00201
      0.29735 [    28]: 00021
      0.22909 [    22]: 01002
      0.06635 [    13]: 10002
      0.02338 [    21]: 01011
      0.01999 [    10]: 10101
      0.01887 [    20]: 01020
      0.01836 [    17]: 01200
      0.00535 [     8]: 10200
      0.00520 [    11]: 10020
      0.00363 [    23]: 00210
ROOT  31:  E=   -4789.9255113745 Eh  8.141 eV  65659.3 cm**-1
      0.88230 [    26]: 00111
      0.08215 [    13]: 10002
      0.00520 [    24]: 00201
      0.00424 [    11]: 10020
      0.00421 [    25]: 00120
      0.00369 [     8]: 10200
      0.00337 [    19]: 01101
      0.00285 [    22]: 01002
      0.00278 [    28]: 00021
ROOT  32:  E=   -4789.9223045667 Eh  8.228 eV  66363.2 cm**-1
      0.28826 [    22]: 01002
      0.19108 [    24]: 00201
      0.15273 [    28]: 00021
      0.09192 [    13]: 10002
      0.04324 [    29]: 00012
      0.03756 [    21]: 01011
      0.03711 [    23]: 00210
      0.03467 [    20]: 01020
      0.03181 [    10]: 10101
      0.02989 [    26]: 00111
      0.02691 [    17]: 01200
      0.01013 [     8]: 10200
      0.00896 [    11]: 10020
      0.00377 [    27]: 00102
      0.00355 [     0]: 21000
      0.00330 [     9]: 10110
ROOT  33:  E=   -4789.9188669839 Eh  8.322 eV  67117.6 cm**-1
      0.49900 [    13]: 10002
      0.17618 [    22]: 01002
      0.10046 [    26]: 00111
      0.04355 [    19]: 01101
      0.03753 [     8]: 10200
      0.03255 [    12]: 10011
      0.03157 [    11]: 10020
      0.02368 [    27]: 00102
      0.01386 [    20]: 01020
      0.01253 [    17]: 01200
      0.00547 [    25]: 00120
      0.00546 [    29]: 00012
      0.00538 [     4]: 12000
      0.00372 [    18]: 01110
      0.00329 [    23]: 00210
ROOT  34:  E=   -4789.9070353208 Eh  8.643 eV  69714.4 cm**-1
      0.91322 [    26]: 00111
      0.05262 [    25]: 00120
      0.00894 [    13]: 10002
      0.00715 [    27]: 00102
      0.00566 [     7]: 11001
ROOT  35:  E=   -4789.9021747007 Eh  8.776 eV  70781.1 cm**-1
      0.41251 [    23]: 00210
      0.40048 [    29]: 00012
      0.09182 [    28]: 00021
      0.03633 [    22]: 01002
      0.01223 [    27]: 00102
      0.01036 [    26]: 00111
      0.00881 [    25]: 00120
      0.00542 [    20]: 01020
      0.00470 [    17]: 01200
      0.00355 [     3]: 20001
      0.00324 [    21]: 01011
ROOT  36:  E=   -4789.9021025884 Eh  8.778 eV  70797.0 cm**-1
      0.47554 [    27]: 00102
      0.41670 [    25]: 00120
      0.03339 [    26]: 00111
      0.03015 [    13]: 10002
      0.01116 [    29]: 00012
      0.01114 [    23]: 00210
      0.00532 [    28]: 00021
      0.00380 [    11]: 10020
      0.00321 [     8]: 10200
ROOT  37:  E=   -4789.8905184534 Eh  9.093 eV  73339.4 cm**-1
      0.44616 [    24]: 00201
      0.40913 [    28]: 00021
      0.06348 [    29]: 00012
      0.02962 [    16]: 02001
      0.02854 [     3]: 20001
      0.01232 [    23]: 00210
ROOT  38:  E=   -4789.8583284615 Eh  9.969 eV  80404.3 cm**-1
      0.47504 [    23]: 00210
      0.43775 [    29]: 00012
      0.02385 [    25]: 00120
      0.02096 [    27]: 00102
      0.01101 [    24]: 00201
      0.01041 [    15]: 02010
      0.00988 [     2]: 20010
      0.00255 [     5]: 11100
ROOT  39:  E=   -4789.8576298753 Eh  9.988 eV  80557.6 cm**-1
      0.46658 [    25]: 00120
      0.44496 [    27]: 00102
      0.02303 [    29]: 00012
      0.02209 [    23]: 00210
      0.01534 [    26]: 00111
      0.01105 [    14]: 02100
      0.00934 [     1]: 20100

                 <<<<<<<<<<<<<<<<<<INITIAL CI STATE CHECK>>>>>>>>>>>>>>>>>>

   E(CAS)= -4790.061889009 Eh DE=    0.000000e+00
   --- Energy gap subspaces: Ext-Act = 0.345   Act-Int = 0.644
   N(occ)=  0.60000 0.60000 0.60000 0.60000 0.60000
   ||g|| =     3.600707e-04 Max(G)=    6.045270e-05 Rot=130,9
--------------
CASSCF RESULTS
--------------

Final CASSCF energy       : -4790.061889009 Eh -130344.2106 eV

----------------
ORBITAL ENERGIES
----------------

  NO   OCC          E(Eh)            E(eV) 
   0   2.0000    -738.728172    -20101.8155 
   1   2.0000    -107.176519     -2916.4214 
   2   2.0000     -95.636937     -2602.4134 
   3   2.0000     -95.636407     -2602.3989 
   4   2.0000     -95.636345     -2602.3973 
   5   2.0000     -19.476467      -529.9816 
   6   2.0000     -15.593202      -424.3126 
   7   2.0000     -15.590668      -424.2436 
   8   2.0000     -15.590569      -424.2410 
   9   2.0000      -9.231722      -251.2079 
  10   2.0000      -9.228265      -251.1138 
  11   2.0000      -9.228060      -251.1083 
  12   2.0000      -9.227981      -251.1061 
  13   2.0000      -9.227791      -251.1010 
  14   2.0000      -2.924929       -79.5914 
  15   2.0000      -1.803572       -49.0777 
  16   2.0000      -1.790157       -48.7127 
  17   2.0000      -1.789506       -48.6949 
  18   2.0000     -15.386830      -418.6969 
  19   2.0000      -0.827533       -22.5183 
  20   2.0000     -15.529816      -422.5878 
  21   2.0000      -0.752933       -20.4884 
  22   2.0000     -15.354574      -417.8192 
  23   2.0000      -0.807844       -21.9825 
  24   2.0000     -15.399636      -419.0454 
  25   2.0000      -0.816128       -22.2080 
  26   2.0000     -15.378319      -418.4653 
  27   2.0000      -0.832993       -22.6669 
  28   2.0000     -11.185100      -304.3620 
  29   2.0000     -11.198550      -304.7280 
  30   2.0000     -11.220128      -305.3152 
  31   2.0000     -11.219978      -305.3111 
  32   2.0000     -11.199172      -304.7450 
  33   2.0000     -11.195748      -304.6518 
  34   2.0000     -11.160285      -303.6868 
  35   2.0000     -11.194076      -304.6063 
  36   2.0000     -11.217332      -305.2391 
  37   2.0000     -11.193035      -304.5780 
  38   2.0000     -11.159952      -303.6777 
  39   2.0000     -11.151896      -303.4585 
  40   2.0000      -0.391813       -10.6618 
  41   2.0000      -0.385087       -10.4787 
  42   2.0000      -0.386787       -10.5250 
  43   2.0000      -0.787098       -21.4180 
  44   2.0000      -0.731592       -19.9076 
  45   2.0000      -0.799454       -21.7543 
  46   2.0000      -0.723491       -19.6872 
  47   2.0000      -0.802451       -21.8358 
  48   2.0000      -0.734116       -19.9763 
  49   2.0000      -0.724088       -19.7034 
  50   2.0000      -0.778860       -21.1939 
  51   2.0000      -0.693536       -18.8721 
  52   2.0000      -0.738039       -20.0830 
  53   2.0000      -0.803276       -21.8583 
  54   2.0000      -0.720209       -19.5979 
  55   2.0000      -0.775019       -21.0894 
  56   2.0000      -0.690475       -18.7888 
  57   2.0000      -0.682455       -18.5705 
  58   2.0000      -0.627516       -17.0756 
  59   2.0000      -0.671900       -18.2833 
  60   2.0000      -0.669994       -18.2315 
  61   2.0000      -0.650407       -17.6985 
  62   2.0000      -0.641111       -17.4455 
  63   2.0000      -0.669555       -18.2195 
  64   2.0000      -0.667208       -18.1557 
  65   2.0000      -0.668637       -18.1945 
  66   2.0000      -0.672209       -18.2917 
  67   2.0000      -0.650794       -17.7090 
  68   2.0000      -0.639957       -17.4141 
  69   2.0000      -0.827286       -22.5116 
  70   2.0000      -0.828363       -22.5409 
  71   2.0000      -0.828772       -22.5520 
  72   2.0000      -0.639469       -17.4008 
  73   2.0000      -0.642413       -17.4810 
  74   2.0000      -0.642297       -17.4778 
  75   2.0000      -0.638759       -17.3815 
  76   2.0000      -0.653905       -17.7937 
  77   2.0000      -0.635980       -17.3059 
  78   2.0000      -0.651038       -17.7156 
  79   2.0000      -0.637514       -17.3476 
  80   2.0000      -0.646571       -17.5941 
  81   2.0000      -0.639908       -17.4128 
  82   2.0000      -0.640162       -17.4197 
  83   2.0000      -0.638237       -17.3673 
  84   2.0000      -0.647813       -17.6279 
  85   2.0000      -0.637952       -17.3595 
  86   2.0000      -0.632772       -17.2186 
  87   2.0000      -0.629732       -17.1359 
  88   0.6000       0.014091         0.3834 
  89   0.6000       0.016078         0.4375 
  90   0.6000       0.100855         2.7444 
  91   0.6000       0.102149         2.7796 
  92   0.6000       0.135638         3.6909 
  93   0.0000       0.480612        13.0781 
  94   0.0000       0.546703        14.8765 
  95   0.0000       0.591309        16.0903 
  96   0.0000       0.654782        17.8175 
  97   0.0000       0.829688        22.5770 
  98   0.0000       0.898507        24.4496 
  99   0.0000       1.097952        29.8768 
 100   0.0000       1.143550        31.1176 
 101   0.0000       1.170061        31.8390 
 102   0.0000       1.194566        32.5058 
 103   0.0000       1.425226        38.7824 
 104   0.0000       1.462441        39.7950 
 105   0.0000       1.511727        41.1362 
 106   0.0000       1.572274        42.7838 
 107   0.0000       1.583286        43.0834 
 108   0.0000       1.718710        46.7685 
 109   0.0000       1.850184        50.3461 
 110   0.0000       2.181364        59.3579 
 111   0.0000       2.195930        59.7543 
 112   0.0000       2.208520        60.0969 
 113   0.0000       2.219051        60.3834 
 114   0.0000       2.236652        60.8624 
 115   0.0000       2.279803        62.0366 
 116   0.0000       2.292844        62.3914 
 117   0.0000       2.316539        63.0362 
 118   0.0000       2.381346        64.7997 
 119   0.0000       2.659224        72.3612 
 120   0.0000       2.721008        74.0424 
 121   0.0000       2.783272        75.7367 
 122   0.0000       3.301312        89.8333 
 123   0.0000       4.498624       122.4138 
 124   0.0000       4.510131       122.7269 
 125   0.0000       4.654856       126.6651 
 126   0.0000       7.763737       211.2620 
 127   0.0000       7.772640       211.5043 
 128   0.0000       7.905693       215.1249 
 129   0.0000       7.918008       215.4600 
 130   0.0000       8.010389       217.9738 
 131   0.0000      10.678722       290.5828 
 132   0.0000      18.005633       489.9582 
 133   0.0000      18.010343       490.0863 
 134   0.0000      18.104385       492.6454 
 135   0.0000      38.959698      1060.1473 
 136   0.0000      77.239487      2101.7933 
 137   0.0000      77.243064      2101.8906 
 138   0.0000      77.312881      2103.7904 
 139   0.0000     140.139726      3813.3958 
 140   0.0000     334.000784      9088.6234 
 141   0.0000     334.003463      9088.6963 
 142   0.0000     334.055899      9090.1231 
 143   0.0000     458.400315     12473.7067 
 144   0.0000    1337.434036     36393.4303 
 145   0.0000    3492.970170     95048.5505 
 146   0.0000   10534.481042    286657.8026 
 147   0.0000       3.250876        88.4608 
 148   0.0000       2.959145        80.5224 
 149   0.0000       2.271191        61.8022 
 150   0.0000       4.810375       130.8970 
 151   0.0000       4.497121       122.3729 
 152   0.0000       3.246627        88.3452 
 153   0.0000       7.326292       199.3585 
 154   0.0000       2.958702        80.5104 
 155   0.0000       5.001132       136.0877 
 156   0.0000       1.835882        49.9569 
 157   0.0000       7.504495       204.2077 
 158   0.0000       2.317826        63.0712 
 159   0.0000       2.953769        80.3761 
 160   0.0000       5.006492       136.2336 
 161   0.0000      47.836806      1301.7057 
 162   0.0000      11.546050       314.1840 
 163   0.0000       4.813199       130.9738 
 164   0.0000       4.982086       135.5695 
 165   0.0000       3.375798        91.8601 
 166   0.0000       3.259025        88.6826 
 167   0.0000       4.806907       130.8026 
 168   0.0000       4.505145       122.5912 
 169   0.0000       2.287104        62.2353 
 170   0.0000       5.047000       137.3358 
 171   0.0000       7.611932       207.1312 
 172   0.0000       3.368899        91.6724 
 173   0.0000       3.203530        87.1725 
 174   0.0000       1.353076        36.8191 
 175   0.0000       3.900717       106.1439 
 176   0.0000       3.159898        85.9852 
 177   0.0000       4.606944       125.3613 
 178   0.0000       3.289617        89.5150 
 179   0.0000       3.156288        85.8870 
 180   0.0000       0.911282        24.7973 
 181   0.0000       0.913102        24.8468 
 182   0.0000       2.253685        61.3259 
 183   0.0000       4.612683       125.5175 
 184   0.0000       3.485163        94.8361 
 185   0.0000       7.170330       195.1146 
 186   0.0000       4.181316       113.7794 
 187   0.0000       6.182806       168.2427 
 188   0.0000       0.931536        25.3484 
 189   0.0000       3.907082       106.3171 
 190   0.0000       2.899752        78.9063 
 191   0.0000       2.234694        60.8091 
 192   0.0000       3.181343        86.5687 
 193   0.0000       7.876038       214.3179 
 194   0.0000       4.480419       121.9184 
 195   0.0000       4.047160       110.1288 
 196   0.0000       7.297550       198.5764 
 197   0.0000      49.885410      1357.4510 
 198   0.0000       4.012358       109.1818 
 199   0.0000       6.714818       182.7195 
 200   0.0000       2.886651        78.5498 
 201   0.0000       3.934199       107.0550 
 202   0.0000       3.640058        99.0510 
 203   0.0000       2.937281        79.9275 
 204   0.0000       3.289990        89.5252 
 205   0.0000       3.563459        96.9666 
 206   0.0000       4.885085       132.9299 
 207   0.0000       4.697662       127.8299 
 208   0.0000      19.670255       535.2548 
 209   0.0000       3.520973        95.8105 
 210   0.0000       3.361981        91.4842 
 211   0.0000       1.992690        54.2238 
 212   0.0000       4.408746       119.9681 
 213   0.0000       1.726770        46.9878 
 214   0.0000      40.510026      1102.3339 
 215   0.0000       3.187071        86.7246 
 216   0.0000       1.221046        33.2263 
 217   0.0000       4.440343       120.8279 
 218   0.0000       4.664970       126.9403 
 219   0.0000       6.521321       177.4542 
 220   0.0000       4.289728       116.7294 
 221   0.0000       4.802529       130.6835 
 222   0.0000       7.652803       208.2433 
 223   0.0000       4.929446       134.1371 
 224   0.0000       7.039436       191.5528 
 225   0.0000       2.027319        55.1662 
 226   0.0000       3.000519        81.6483 
 227   0.0000       3.930277       106.9483 
 228   0.0000       3.563031        96.9550 
 229   0.0000       3.458531        94.1114 
 230   0.0000       1.987312        54.0775 
 231   0.0000       4.822466       131.2260 
 232   0.0000      40.582224      1104.2984 
 233   0.0000       1.191188        32.4139 
 234   0.0000       3.817481       103.8789 
 235   0.0000       1.727825        47.0165 
 236   0.0000       3.152861        85.7937 
 237   0.0000       2.948823        80.2415 
 238   0.0000       6.407811       174.3654 
 239   0.0000       8.747038       238.0190 
 240   0.0000       4.656885       126.7203 
 241   0.0000       4.270686       116.2113 
 242   0.0000       4.605397       125.3192 
 243   0.0000       3.618325        98.4596 
 244   0.0000       3.379140        91.9511 
 245   0.0000       3.011540        81.9482 
 246   0.0000       4.697473       127.8247 
 247   0.0000       6.118305       166.4875 
 248   0.0000       3.528990        96.0287 
 249   0.0000       4.374292       119.0305 
 250   0.0000       4.385507       119.3357 
 251   0.0000      20.293971       552.2270 
 252   0.0000       2.002217        54.4831 
 253   0.0000       3.624743        98.6343 
 254   0.0000       4.775458       129.9468 
 255   0.0000       8.690279       236.4745 
 256   0.0000       4.410122       120.0055 
 257   0.0000       4.832901       131.5099 
 258   0.0000       4.827995       131.3764 
 259   0.0000       1.708835        46.4998 
 260   0.0000       3.470766        94.4443 
 261   0.0000       1.981781        53.9270 
 262   0.0000       3.803014       103.4853 
 263   0.0000       3.551672        96.6459 
 264   0.0000      40.850331      1111.5940 
 265   0.0000       4.685968       127.5117 
 266   0.0000       2.949486        80.2596 
 267   0.0000       3.591869        97.7397 
 268   0.0000       3.632990        98.8587 
 269   0.0000       3.608588        98.1947 
 270   0.0000       1.188476        32.3401 
 271   0.0000       3.015381        82.0527 
 272   0.0000       6.480104       176.3326 
 273   0.0000       3.390435        92.2584 
 274   0.0000       4.264054       116.0308 
 275   0.0000       3.142670        85.5164 
 276   0.0000      19.925793       542.2084 
 277   0.0000       4.595863       125.0598 
 278   0.0000       5.945012       161.7720 
 279   0.0000       4.769689       129.7898 
 280   0.0000       4.388095       119.4061 
 281   0.0000       2.010873        54.7186 
 282   0.0000       1.008200        27.4345 
 283   0.0000       2.968988        80.7903 
 284   0.0000       0.826838        22.4994 
 285   0.0000       2.542907        69.1960 
 286   0.0000       6.504078       176.9850 
 287   0.0000       5.519262       150.1867 
 288   0.0000       3.021117        82.2088 
 289   0.0000       2.201699        59.9113 
 290   0.0000       3.472321        94.4867 
 291   0.0000       2.188313        59.5470 
 292   0.0000       3.543196        96.4153 
 293   0.0000       3.310743        90.0899 
 294   0.0000       2.001793        54.4716 
 295   0.0000       3.115393        84.7742 
 296   0.0000       3.460440        94.1634 
 297   0.0000       3.281248        89.2873 
 298   0.0000       2.701785        73.5193 
 299   0.0000       3.296498        89.7023 
 300   0.0000       6.444878       175.3740 
 301   0.0000       2.568064        69.8806 
 302   0.0000       0.876296        23.8452 
 303   0.0000       5.458763       148.5405 
 304   0.0000       2.304120        62.6983 
 305   0.0000       2.952030        80.3288 
 306   0.0000       2.523161        68.6587 
 307   0.0000       2.658210        72.3336 
 308   0.0000      33.755821       918.5426 
 309   0.0000       2.781608        75.6914 
 310   0.0000       0.977817        26.6078 
 311   0.0000       1.166679        31.7469 
 312   0.0000       6.523381       177.5102 
 313   0.0000       2.612409        71.0873 
 314   0.0000       2.439889        66.3928 
 315   0.0000       2.280018        62.0424 
 316   0.0000       6.186666       168.3477 
 317   0.0000       2.678805        72.8940 
 318   0.0000       3.097333        84.2827 
 319   0.0000       3.548240        96.5525 
 320   0.0000       2.251698        61.2718 
 321   0.0000       3.081824        83.8607 
 322   0.0000       3.512642        95.5838 
 323   0.0000      33.794802       919.6033 
 324   0.0000       3.204627        87.2023 
 325   0.0000       3.126054        85.0642 
 326   0.0000       2.925768        79.6142 
 327   0.0000       2.455896        66.8283 
 328   0.0000       0.936023        25.4705 
 329   0.0000       2.964917        80.6795 
 330   0.0000       4.035251       109.8048 
 331   0.0000       5.108955       139.0217 
 332   0.0000       2.871815        78.1461 
 333   0.0000       5.242334       142.6511 
 334   0.0000       1.765654        48.0459 
 335   0.0000       3.478237        94.6477 
 336   0.0000      33.780560       919.2158 
 337   0.0000       2.270027        61.7706 
 338   0.0000       2.686917        73.1147 
 339   0.0000       3.358920        91.4009 
 340   0.0000       2.903408        79.0058 
 341   0.0000       5.152772       140.2141 
 342   0.0000       2.338307        63.6286 
 343   0.0000       2.551042        69.4174 
 344   0.0000       2.150532        58.5190 
 345   0.0000       3.604123        98.0732 
 346   0.0000       2.357380        64.1476 
 347   0.0000       2.810440        76.4760 
 348   0.0000       0.972676        26.4679 
 349   0.0000       3.103716        84.4564 
 350   0.0000       3.488576        94.9290 
 351   0.0000       2.392164        65.0941 
 352   0.0000       1.197179        32.5769 
 353   0.0000       3.271084        89.0107 
 354   0.0000       5.554642       151.1495 
 355   0.0000       2.769790        75.3698 
 356   0.0000       3.430038        93.3361 
 357   0.0000       2.612591        71.0922 
 358   0.0000       6.326291       172.1471 
 359   0.0000       3.529426        96.0406 
 360   0.0000       6.701629       182.3606 
 361   0.0000       2.621084        71.3233 
 362   0.0000       1.040622        28.3168 
 363   0.0000       1.198732        32.6192 
 364   0.0000       2.695590        73.3507 
 365   0.0000       1.027940        27.9717 
 366   0.0000       3.427279        93.2610 
 367   0.0000       5.156222       140.3079 
 368   0.0000       2.154694        58.6322 
 369   0.0000       3.628791        98.7444 
 370   0.0000       2.608112        70.9703 
 371   0.0000       3.367611        91.6373 
 372   0.0000       2.768498        75.3347 
 373   0.0000       2.268659        61.7333 
 374   0.0000       2.912339        79.2488 
 375   0.0000       5.555715       151.1787 
 376   0.0000       3.534236        96.1715 
 377   0.0000       2.807551        76.3973 
 378   0.0000       0.968698        26.3596 
 379   0.0000       2.345644        63.8282 
 380   0.0000       6.357027       172.9835 
 381   0.0000       3.279964        89.2524 
 382   0.0000       3.489585        94.9564 
 383   0.0000       2.549628        69.3789 
 384   0.0000      33.762981       918.7374 
 385   0.0000       2.337395        63.6037 
 386   0.0000       6.659121       181.2039 
 387   0.0000       2.399686        65.2988 
 388   0.0000       2.619369        71.2767 
 389   0.0000       3.102946        84.4354 
 390   0.0000       0.966052        26.2876 
 391   0.0000       1.733225        47.1635 
 392   0.0000       2.642272        71.8999 
 393   0.0000       2.882923        78.4483 
 394   0.0000       2.277167        61.9649 
 395   0.0000       3.535173        96.1969 
 396   0.0000      33.791414       919.5111 
 397   0.0000       6.230756       169.5475 
 398   0.0000       0.936484        25.4830 
 399   0.0000       3.092484        84.1508 
 400   0.0000       3.145721        85.5994 
 401   0.0000       2.465945        67.1018 
 402   0.0000       2.924700        79.5851 
 403   0.0000       3.205210        87.2182 
 404   0.0000       3.093662        84.1828 
 405   0.0000       5.087729       138.4442 
 406   0.0000       3.477585        94.6299 
 407   0.0000       2.427626        66.0591 
 408   0.0000       4.056254       110.3763 
 409   0.0000       5.229050       142.2897 
 410   0.0000       2.671069        72.6835 
 411   0.0000       3.499599        95.2289 
 412   0.0000       2.978299        81.0436 
 413   0.0000       6.489786       176.5961 
 414   0.0000       2.254232        61.3408 
 415   0.0000       1.170489        31.8506 
 416   0.0000       2.765110        75.2425 
 417   0.0000       2.303597        62.6841 
 418   0.0000      33.773182       919.0150 
 419   0.0000       0.836016        22.7491 
 420   0.0000       2.565709        69.8165 
 421   0.0000       3.066683        83.4487 
 422   0.0000       6.414951       174.5597 
 423   0.0000       3.457111        94.0728 
 424   0.0000       3.529597        96.0452 
 425   0.0000       2.607194        70.9454 
 426   0.0000       3.395084        92.3849 
[...]
  1 N      7.3630     7.0000    -0.3630     2.7512     2.7202     0.0310
  2 N      7.7987     7.0000    -0.7987     2.7646     2.7488     0.0158
  3 N      7.7798     7.0000    -0.7798     2.1661     2.0867     0.0795
  4 N      7.7819     7.0000    -0.7819     2.1236     2.0268     0.0968
  5 N      7.7825     7.0000    -0.7825     2.1098     2.0186     0.0912
  6 C      6.0408     6.0000    -0.0408     3.9470     3.9394     0.0077
  7 C      6.0974     6.0000    -0.0974     3.9502     3.9443     0.0059
  8 C      6.1031     6.0000    -0.1031     3.9071     3.9043     0.0028
  9 C      6.1118     6.0000    -0.1118     3.9109     3.9078     0.0031
 10 C      6.0893     6.0000    -0.0893     3.9405     3.9358     0.0047
 11 C      6.0692     6.0000    -0.0692     3.9366     3.9279     0.0087
 12 C      6.3027     6.0000    -0.3027     3.8481     3.8464     0.0017
 13 C      6.0858     6.0000    -0.0858     3.9627     3.9577     0.0050
 14 C      6.0992     6.0000    -0.0992     3.8963     3.8944     0.0019
 15 C      6.0707     6.0000    -0.0707     3.9424     3.9336     0.0088
 16 C      6.3080     6.0000    -0.3080     3.8444     3.8425     0.0019
 17 C      6.3121     6.0000    -0.3121     3.8582     3.8563     0.0019
 18 H      0.9416     1.0000     0.0584     0.9650     0.9613     0.0037
 19 H      0.8940     1.0000     0.1060     0.9678     0.9661     0.0018
 20 H      0.8875     1.0000     0.1125     0.9673     0.9674    -0.0001
 21 H      0.9116     1.0000     0.0884     0.9543     0.9519     0.0024
 22 H      0.9209     1.0000     0.0791     0.9572     0.9539     0.0033
 23 H      0.8968     1.0000     0.1032     0.9669     0.9653     0.0015
 24 H      0.8856     1.0000     0.1144     0.9680     0.9679     0.0001
 25 H      0.8873     1.0000     0.1127     0.9656     0.9655     0.0000
 26 H      0.8946     1.0000     0.1054     0.9675     0.9658     0.0017
 27 H      0.9112     1.0000     0.0888     0.9537     0.9514     0.0023
 28 H      0.9180     1.0000     0.0820     0.9578     0.9546     0.0033
 29 H      0.7203     1.0000     0.2797     0.9296     0.9248     0.0048
 30 H      0.7152     1.0000     0.2848     0.9221     0.9177     0.0044
 31 H      0.7193     1.0000     0.2807     0.9276     0.9222     0.0054
 32 H      0.9269     1.0000     0.0731     0.9559     0.9525     0.0034
 33 H      0.9158     1.0000     0.0842     0.9528     0.9509     0.0019
 34 H      0.9878     1.0000     0.0122     0.9517     0.9509     0.0008
 35 H      0.9271     1.0000     0.0729     0.9700     0.9664     0.0036
 36 H      0.9921     1.0000     0.0079     0.9495     0.9477     0.0018
 37 H      0.9291     1.0000     0.0709     0.9677     0.9639     0.0038
 38 H      0.9805     1.0000     0.0195     0.9533     0.9520     0.0013
 39 H      0.9115     1.0000     0.0885     0.9697     0.9693     0.0003
 40 H      0.9014     1.0000     0.0986     0.9714     0.9704     0.0010
 41 H      0.9029     1.0000     0.0971     0.9704     0.9704    -0.0000
 42 H      0.9013     1.0000     0.0987     0.9719     0.9719     0.0000
 43 H      0.9129     1.0000     0.0871     0.9690     0.9684     0.0006
 44 H      0.9024     1.0000     0.0976     0.9717     0.9708     0.0009
 45 H      0.9086     1.0000     0.0914     0.9732     0.9722     0.0010
 46 H      0.9069     1.0000     0.0931     0.9694     0.9694     0.0000
 47 H      0.9073     1.0000     0.0927     0.9742     0.9740     0.0003

  Mayer bond orders larger than 0.100000
B(  0-Mo,  3-N ) :   0.2644 B(  0-Mo,  4-N ) :   0.2505 B(  0-Mo,  5-N ) :   0.2417 
B(  1-N ,  8-C ) :   0.9186 B(  1-N ,  9-C ) :   0.9225 B(  1-N , 14-C ) :   0.9265 
B(  2-N , 29-H ) :   0.9068 B(  2-N , 30-H ) :   0.9087 B(  2-N , 31-H ) :   0.9080 
B(  3-N ,  6-C ) :   0.9797 B(  3-N , 13-C ) :   0.9839 B(  4-N ,  7-C ) :   0.9620 
B(  4-N , 15-C ) :   0.9747 B(  5-N , 10-C ) :   0.9605 B(  5-N , 11-C ) :   0.9699 
B(  6-C , 17-C ) :   0.9694 B(  6-C , 18-H ) :   0.9860 B(  6-C , 34-H ) :   0.9919 
B(  7-C ,  8-C ) :   1.0014 B(  7-C , 27-H ) :   0.9850 B(  7-C , 28-H ) :   0.9836 
B(  8-C , 25-H ) :   0.9752 B(  8-C , 26-H ) :   0.9878 B(  9-C , 10-C ) :   1.0014 
B(  9-C , 19-H ) :   0.9881 B(  9-C , 20-H ) :   0.9745 B( 10-C , 21-H ) :   0.9843 
B( 10-C , 22-H ) :   0.9830 B( 11-C , 12-C ) :   0.9627 B( 11-C , 35-H ) :   0.9897 
B( 11-C , 36-H ) :   0.9972 B( 12-C , 42-H ) :   0.9869 B( 12-C , 43-H ) :   0.9812 
B( 12-C , 44-H ) :   0.9924 B( 13-C , 14-C ) :   0.9992 B( 13-C , 32-H ) :   0.9799 
B( 13-C , 33-H ) :   0.9830 B( 14-C , 23-H ) :   0.9886 B( 14-C , 24-H ) :   0.9726 
B( 15-C , 16-C ) :   0.9600 B( 15-C , 37-H ) :   0.9906 B( 15-C , 38-H ) :   0.9991 
B( 16-C , 39-H ) :   0.9824 B( 16-C , 40-H ) :   0.9914 B( 16-C , 41-H ) :   0.9868 
B( 17-C , 45-H ) :   0.9907 B( 17-C , 46-H ) :   0.9874 B( 17-C , 47-H ) :   0.9835 



-------------------------------------------------------------
 Forming the transition density       ... done in 0.069047 sec
-------------------------------------------------------------



==========================================
CASSCF UV, CD spectra and dipole moments
==========================================
-------------------
ABSORPTION SPECTRUM
-------------------

Center of mass           = ( -0.0197,  0.0140,  0.7284)
Nuclear contribution to the dipole moment =    -0.686217,    0.585183,    2.323080 au

Calculating the Dipole integrals                  ... done
Transforming integrals                            ... done
Calculating the Linear Momentum integrals         ... done
Transforming integrals                            ... done
Calculating the Angular Momentum integrals        ... done
Transforming integrals                            ... done

------------------------------------------------------------------------------------------
                                ABSORPTION SPECTRUM
------------------------------------------------------------------------------------------
  States           Energy   Wavelength   fosc          T2        TX         TY        TZ  
                   (cm-1)     (nm)                   (D**2)      (D)        (D)       (D) 
------------------------------------------------------------------------------------------
  0( 1)-> 1( 1) 2     541.7   18459.3   0.000000573   0.00224   0.04623  -0.01033   0.00026
  0( 1)-> 2( 1) 2   16295.1    613.7   0.000287776   0.03750  -0.00753   0.06358   0.18276
  0( 1)-> 3( 1) 2   16366.6    611.0   0.000747015   0.09692  -0.09164  -0.01861  -0.29695
  0( 1)-> 4( 1) 2   17247.6    579.8   0.002273955   0.27997   0.01396  -0.01313  -0.52877
  0( 1)-> 5( 1) 2   17295.3    578.2   0.003009706   0.36953  -0.01826  -0.00201  -0.60761
  0( 1)-> 6( 1) 2   17829.1    560.9   0.000115093   0.01371   0.11192   0.02572   0.02281
  0( 1)-> 7( 1) 2   19221.4    520.3   0.000089433   0.00988  -0.01320   0.09400   0.02948
  0( 1)-> 8( 1) 2   23607.1    423.6   0.000072848   0.00655  -0.03029   0.04806  -0.05767
  0( 1)-> 9( 1) 2   23689.4    422.1   0.000461539   0.04137  -0.07448  -0.03509   0.18599
  0( 1)->10( 1) 2   27739.7    360.5   0.000006031   0.00046   0.00511  -0.01334   0.01605
  0( 1)->11( 1) 2   34049.6    293.7   0.000025505   0.00159  -0.01308   0.02988  -0.02295
  0( 1)->12( 1) 2   34152.1    292.8   0.000335869   0.02088   0.05882   0.01945  -0.13056
  0( 1)->13( 1) 2   38582.3    259.2   0.000037352   0.00206  -0.04171   0.01195  -0.01316
  0( 1)->14( 1) 2   39270.7    254.6   0.000004721   0.00026  -0.01562   0.00264  -0.00209
  0( 1)->15( 1) 2   39832.4    251.1   0.000005406   0.00029  -0.00312   0.00668   0.01529
  0( 1)->16( 1) 2   40217.6    248.6   0.000268889   0.01420   0.11912   0.00275   0.00044
  0( 1)->17( 1) 2   40303.6    248.1   0.000294176   0.01550   0.00638  -0.12425   0.00454
  0( 1)->18( 1) 2   41724.6    239.7   0.000031988   0.00163  -0.02090   0.03444  -0.00229
  0( 1)->19( 1) 2   41982.5    238.2   0.000178414   0.00902  -0.03130  -0.01487   0.08845
  0( 1)->20( 1) 2   42439.5    235.6   0.000044211   0.00221  -0.01220  -0.01660  -0.04228
  0( 1)->21( 1) 2   43182.1    231.6   0.000011255   0.00055  -0.00107   0.00645  -0.02260
  0( 1)->22( 1) 2   44699.8    223.7   0.000021856   0.00104  -0.00106  -0.03212  -0.00233
  0( 1)->23( 1) 2   45060.0    221.9   0.000029736   0.00140  -0.03265   0.01516   0.01028
  0( 1)->24( 1) 2   45238.9    221.0   0.000017187   0.00081   0.00897   0.02672  -0.00354
  0( 1)->25( 1) 2   46035.1    217.2   0.000021567   0.00099  -0.02954  -0.01064   0.00297
  0( 1)->26( 1) 2   49956.9    200.2   0.000084243   0.00358   0.01211  -0.03863  -0.04407
  0( 1)->27( 1) 2   50344.8    198.6   0.000288285   0.01216  -0.00918   0.00944  -0.10948
  0( 1)->28( 1) 2   50906.7    196.4   0.000305179   0.01273  -0.01821   0.11099   0.00895
  0( 1)->29( 1) 2   52107.3    191.9   0.000022204   0.00090   0.02403   0.00850   0.01598
  0( 1)->30( 1) 2   65450.4    152.8   0.000057280   0.00186  -0.02188  -0.01211  -0.03512
  0( 1)->31( 1) 2   65659.3    152.3   0.000002494   0.00008  -0.00609   0.00658  -0.00058
  0( 1)->32( 1) 2   66363.2    150.7   0.000112101   0.00359   0.02431   0.00982   0.05385
  0( 1)->33( 1) 2   67117.6    149.0   0.000080354   0.00254   0.01012  -0.03259  -0.03712
  0( 1)->34( 1) 2   69714.4    143.4   0.000000403   0.00001  -0.00248  -0.00148  -0.00198
  0( 1)->35( 1) 2   70781.1    141.3   0.000015744   0.00047  -0.00563  -0.00957  -0.01868
  0( 1)->36( 1) 2   70797.0    141.2   0.000003424   0.00010  -0.00788   0.00637   0.00010
  0( 1)->37( 1) 2   73339.4    136.4   0.000000568   0.00002  -0.00375  -0.00150  -0.00037
  0( 1)->38( 1) 2   80404.3    124.4   0.000023416   0.00062   0.00313   0.00480  -0.02420
  0( 1)->39( 1) 2   80557.6    124.1   0.000001969   0.00005  -0.00478   0.00230   0.00488
------------------------------------------------------------------------------------------



------------------------------------------------------------------------------
                             CD SPECTRUM
------------------------------------------------------------------------------
      States        Energy   Wavelength   R*T        RX        RY        RZ   
                    (cm-1)      (nm)   (1e40*sgs)   (au)      (au)      (au)  
------------------------------------------------------------------------------
  0( 1)-> 1( 1) 2     541.7   18459.3     0.32536   0.03622   0.00352   0.44206
  0( 1)-> 2( 1) 2   16295.1    613.7    -7.56550   0.33543   0.04410  -0.22469
  0( 1)-> 3( 1) 2   16366.6    611.0     7.84241  -0.13022   0.45239  -0.13055
  0( 1)-> 4( 1) 2   17247.6    579.8     6.69958  -0.14262  -0.01169  -0.07179
[file orca_tools/Tool-Properties/qcpropertybase.cpp, line 449, Process 7]: Runtime error: trying to pass an integer value but we expect a variable of type: ArrayOfDoubles

[file orca_tools/Tool-Properties/qcpropertybase.cpp, line 449, Process 2]: Runtime error: trying to pass an integer value but we expect a variable of type: ArrayOfDoubles

[file orca_tools/Tool-Properties/qcpropertybase.cpp, line 449, Process 4]: Runtime error: trying to pass an integer value but we expect a variable of type: ArrayOfDoubles

[file orca_tools/Tool-Properties/qcpropertybase.cpp, line 449, Process 5]: Runtime error: trying to pass an integer value but we expect a variable of type: ArrayOfDoubles

[file orca_tools/Tool-Properties/qcpropertybase.cpp, line 449, Process 6]: Runtime error: trying to pass an integer value but we expect a variable of type: ArrayOfDoubles

[file orca_tools/Tool-Properties/qcpropertybase.cpp, line 449, Process 1]: Runtime error: trying to pass an integer value but we expect a variable of type: ArrayOfDoubles

[file orca_tools/Tool-Properties/qcpropertybase.cpp, line 449, Process 1]: Runtime error: trying to pass an integer value but we expect a variable of type: ArrayOfDoubles

[file orca_tools/Tool-Properties/qcpropertybase.cpp, line 449, Process 2]: Runtime error: trying to pass an integer value but we expect a variable of type: ArrayOfDoubles

[file orca_tools/Tool-Properties/qcpropertybase.cpp, line 449, Process 3]: Runtime error: trying to pass an integer value but we expect a variable of type: ArrayOfDoubles

[file orca_tools/Tool-Properties/qcpropertybase.cpp, line 449, Process 4]: Runtime error: trying to pass an integer value but we expect a variable of type: ArrayOfDoubles

[file orca_tools/Tool-Properties/qcpropertybase.cpp, line 449, Process 5]: Runtime error: trying to pass an integer value but we expect a variable of type: ArrayOfDoubles

[file orca_tools/Tool-Properties/qcpropertybase.cpp, line 449, Process 6]: Runtime error: trying to pass an integer value but we expect a variable of type: ArrayOfDoubles

[file orca_tools/Tool-Properties/qcpropertybase.cpp, line 449, Process 3]: Runtime error: trying to pass an integer value but we expect a variable of type: ArrayOfDoubles

[file orca_tools/Tool-Properties/qcpropertybase.cpp, line 449, Process 7]: Runtime error: trying to pass an integer value but we expect a variable of type: ArrayOfDoubles

  0( 1)-> 5( 1) 2   17295.3    578.2    -2.80921  -0.01850   0.17180   0.02491
  0( 1)-> 6( 1) 2   17829.1    560.9    -1.26696   0.07691  -0.59942  -0.00096
  0( 1)-> 7( 1) 2   19221.4    520.3    -0.48992   0.69564   0.08268  -0.04187
  0( 1)-> 8( 1) 2   23607.1    423.6    -1.15402   0.46406   0.21392   0.04242
  0( 1)-> 9( 1) 2   23689.4    422.1     0.58538  -0.17537   0.41415   0.02487
  0( 1)->10( 1) 2   27739.7    360.5    -0.30731  -0.59334  -0.06257   0.03362
  0( 1)->11( 1) 2   34049.6    293.7    -0.23062  -0.08457  -0.05060   0.03651
  0( 1)->12( 1) 2   34152.1    292.8     0.02398  -0.04112   0.08797  -0.00641
  0( 1)->13( 1) 2   38582.3    259.2     0.01127   0.00244   0.01343  -0.00015
  0( 1)->14( 1) 2   39270.7    254.6     0.04730  -0.01497   0.00476  -0.00410
  0( 1)->15( 1) 2   39832.4    251.1    -0.28741   0.01827  -0.22048  -0.00133
  0( 1)->16( 1) 2   40217.6    248.6    -0.11955  -0.00597   0.02307   0.00644
  0( 1)->17( 1) 2   40303.6    248.1     0.17056  -0.00862  -0.00746   0.01046
  0( 1)->18( 1) 2   41724.6    239.7    -0.00443   0.00280   0.00103   0.00033
  0( 1)->19( 1) 2   41982.5    238.2     0.02427   0.00093  -0.00977   0.00016
  0( 1)->20( 1) 2   42439.5    235.6     0.04145  -0.00014  -0.01619   0.00111
  0( 1)->21( 1) 2   43182.1    231.6     0.00500   0.00204   0.00315  -0.00039
  0( 1)->22( 1) 2   44699.8    223.7    -0.00877  -0.00667   0.00181  -0.00160
  0( 1)->23( 1) 2   45060.0    221.9    -0.01686   0.00067  -0.00166  -0.00426
  0( 1)->24( 1) 2   45238.9    221.0     0.01017  -0.00029   0.00121  -0.00707
  0( 1)->25( 1) 2   46035.1    217.2     0.00058   0.00034  -0.00231  -0.00385
  0( 1)->26( 1) 2   49956.9    200.2    -0.03579  -0.00349  -0.00027   0.00365
  0( 1)->27( 1) 2   50344.8    198.6     0.02495  -0.00138   0.00473  -0.00070
  0( 1)->28( 1) 2   50906.7    196.4    -0.04021   0.00252  -0.00157   0.00034
  0( 1)->29( 1) 2   52107.3    191.9    -0.01362   0.00162  -0.01277  -0.00024
  0( 1)->30( 1) 2   65450.4    152.8     0.01457   0.00071  -0.00254  -0.00180
  0( 1)->31( 1) 2   65659.3    152.3     0.00110  -0.00209  -0.00130  -0.00301
  0( 1)->32( 1) 2   66363.2    150.7     0.01006  -0.00054   0.00265   0.00077
  0( 1)->33( 1) 2   67117.6    149.0    -0.01858   0.00413   0.00081   0.00312
  0( 1)->34( 1) 2   69714.4    143.4    -0.00039   0.00132  -0.00002  -0.00057
  0( 1)->35( 1) 2   70781.1    141.3    -0.00474   0.00304   0.00068   0.00010
  0( 1)->36( 1) 2   70797.0    141.2     0.00182  -0.00362  -0.00292  -0.00139
  0( 1)->37( 1) 2   73339.4    136.4     0.00238   0.00155  -0.01245  -0.00008
  0( 1)->38( 1) 2   80404.3    124.4    -0.00035  -0.00145   0.00135   0.00016
  0( 1)->39( 1) 2   80557.6    124.1     0.00241  -0.00141  -0.00128   0.00189
------------------------------------------------------------------------------
[file orca_tools/Tool-Properties/qcpropertybase.cpp, line 449, Process 0]: Runtime error: trying to pass an integer value but we expect a variable of type: ArrayOfDoubles

[file orca_tools/Tool-Properties/qcpropertybase.cpp, line 449, Process 0]: Runtime error: trying to pass an integer value but we expect a variable of type: ArrayOfDoubles

--------------------------------------------------------------------------
Primary job  terminated normally, but 1 process returned
a non-zero exit code. Per user-direction, the job has been aborted.
--------------------------------------------------------------------------
--------------------------------------------------------------------------
mpirun detected that one or more processes exited with non-zero status, thus causing
the job to be terminated. The first process to do so was:

  Process name: [[28295,1],1]
  Exit code:    55
--------------------------------------------------------------------------

ORCA finished by error termination in CASSCF
Calling Command: mpirun -np 8 -x LD_LIBRARY_PATH -x PATH /hsnfs/software/orca/orca_current_directory/orca_current_20230616/orca_casscf_mpi mol.casinp.tmp mol 
[file orca_tools/qcmsg.cpp, line 394]: 
  .... aborting the run

[file orca_tools/qcmsg.cpp, line 394]: 
  .... aborting the run

'mol.bas0' -> '/csnfs/users/llang/calculations/ICE_SOC_SSC/Mo_HIPT_NH3/scalarrel/CASSCF_3_5_startorbs/mergefrag_startorbs/CASSCF_3_5_QDPT_locorbs/checkpopulations_after_blockcanon/mol.bas0'
'mol.bas1' -> '/csnfs/users/llang/calculations/ICE_SOC_SSC/Mo_HIPT_NH3/scalarrel/CASSCF_3_5_startorbs/mergefrag_startorbs/CASSCF_3_5_QDPT_locorbs/checkpopulations_after_blockcanon/mol.bas1'
'mol.bas2' -> '/csnfs/users/llang/calculations/ICE_SOC_SSC/Mo_HIPT_NH3/scalarrel/CASSCF_3_5_startorbs/mergefrag_startorbs/CASSCF_3_5_QDPT_locorbs/checkpopulations_after_blockcanon/mol.bas2'
'mol.bas3' -> '/csnfs/users/llang/calculations/ICE_SOC_SSC/Mo_HIPT_NH3/scalarrel/CASSCF_3_5_startorbs/mergefrag_startorbs/CASSCF_3_5_QDPT_locorbs/checkpopulations_after_blockcanon/mol.bas3'
'mol.bas4' -> '/csnfs/users/llang/calculations/ICE_SOC_SSC/Mo_HIPT_NH3/scalarrel/CASSCF_3_5_startorbs/mergefrag_startorbs/CASSCF_3_5_QDPT_locorbs/checkpopulations_after_blockcanon/mol.bas4'
'mol.bas5' -> '/csnfs/users/llang/calculations/ICE_SOC_SSC/Mo_HIPT_NH3/scalarrel/CASSCF_3_5_startorbs/mergefrag_startorbs/CASSCF_3_5_QDPT_locorbs/checkpopulations_after_blockcanon/mol.bas5'
'mol.bibtex' -> '/csnfs/users/llang/calculations/ICE_SOC_SSC/Mo_HIPT_NH3/scalarrel/CASSCF_3_5_startorbs/mergefrag_startorbs/CASSCF_3_5_QDPT_locorbs/checkpopulations_after_blockcanon/mol.bibtex'
'mol.blockcanon' -> '/csnfs/users/llang/calculations/ICE_SOC_SSC/Mo_HIPT_NH3/scalarrel/CASSCF_3_5_startorbs/mergefrag_startorbs/CASSCF_3_5_QDPT_locorbs/checkpopulations_after_blockcanon/mol.blockcanon'
'mol.densities' -> '/csnfs/users/llang/calculations/ICE_SOC_SSC/Mo_HIPT_NH3/scalarrel/CASSCF_3_5_startorbs/mergefrag_startorbs/CASSCF_3_5_QDPT_locorbs/checkpopulations_after_blockcanon/mol.densities'
'mol.err' -> '/csnfs/users/llang/calculations/ICE_SOC_SSC/Mo_HIPT_NH3/scalarrel/CASSCF_3_5_startorbs/mergefrag_startorbs/CASSCF_3_5_QDPT_locorbs/checkpopulations_after_blockcanon/mol.err'
'mol.gbw' -> '/csnfs/users/llang/calculations/ICE_SOC_SSC/Mo_HIPT_NH3/scalarrel/CASSCF_3_5_startorbs/mergefrag_startorbs/CASSCF_3_5_QDPT_locorbs/checkpopulations_after_blockcanon/mol.gbw'
'mol.job' -> '/csnfs/users/llang/calculations/ICE_SOC_SSC/Mo_HIPT_NH3/scalarrel/CASSCF_3_5_startorbs/mergefrag_startorbs/CASSCF_3_5_QDPT_locorbs/checkpopulations_after_blockcanon/mol.job'
'mol_property.txt' -> '/csnfs/users/llang/calculations/ICE_SOC_SSC/Mo_HIPT_NH3/scalarrel/CASSCF_3_5_startorbs/mergefrag_startorbs/CASSCF_3_5_QDPT_locorbs/checkpopulations_after_blockcanon/mol_property.txt'
cp: cannot stat 'mol.asa.inp': No such file or directory
cp: missing destination file operand after '/csnfs/users/llang/calculations/ICE_SOC_SSC/Mo_HIPT_NH3/scalarrel/CASSCF_3_5_startorbs/mergefrag_startorbs/CASSCF_3_5_QDPT_locorbs/checkpopulations_after_blockcanon/'
Try 'cp --help' for more information.
