! Job execution by suborca V 9.37 !
Job started from head1.mpi-muelheim.mpg.de, running /hsnfs/software/orca/orca_current_directory/orca_current_20230531/orca on xe30th84.mpi-muelheim.mpg.de in /usr/scratch/llang/mol__266764 (/bin/tcsh)
Job execution start: Wed May 31 15:42:46 CEST 2023
Shared library path: /hsnfs/software/openmpi-4.1.0/lib:/hsnfs/software/orca/orca_current_directory/orca_current_20230531:/hsnfs/software/themis/llvm-14.0.1/lib:/hsnfs/software/orca/orca_stable:/usr/users/openmpi-2.0.4/lib:/opt/intel/lib/intel64:/opt/intel/mkl/lib/intel64
SLURM Job ID is: 266764
SLURM_JOB_NODELIST: xe30th84
Maxcore enforced by SLURM: 14400 MB
Expanded nodelist (1 nodes):
xe30th84

                                 *****************
                                 * O   R   C   A *
                                 *****************

                                            #,                                       
                                            ###                                      
                                            ####                                     
                                            #####                                    
                                            ######                                   
                                           ########,                                 
                                     ,,################,,,,,                         
                               ,,#################################,,                 
                          ,,##########################################,,             
                       ,#########################################, ''#####,          
                    ,#############################################,,   '####,        
                  ,##################################################,,,,####,       
                ,###########''''           ''''###############################       
              ,#####''   ,,,,##########,,,,          '''####'''          '####       
            ,##' ,,,,###########################,,,                        '##       
           ' ,,###''''                  '''############,,,                           
         ,,##''                                '''############,,,,        ,,,,,,###''
      ,#''                                            '''#######################'''  
     '                                                          ''''####''''         
             ,#######,   #######,   ,#######,      ##                                
            ,#'     '#,  ##    ##  ,#'     '#,    #''#        ,####,   ,####,        
            ##       ##  ##   ,#'  ##            #'  '#       #'       #'  '#        
            ##       ##  #######   ##           ,######,      #####,   #    #        
            '#,     ,#'  ##    ##  '#,     ,#' ,#      #,     #,   #   #,  ,#        
             '#######'   ##     ##  '#######'  #'      '#     '####' # '####'.alpha  



                  #######################################################
                  #                        -***-                        #
                  #          Department of theory and spectroscopy      #
                  #    Directorship and core code : Frank Neese         #
                  #        Max Planck Institute fuer Kohlenforschung    #
                  #                Kaiser Wilhelm Platz 1               #
                  #                 D-45470 Muelheim/Ruhr               #
                  #                      Germany                        #
                  #                                                     #
                  #                  All rights reserved                #
                  #                        -***-                        #
                  #######################################################


                         Program Version 5.0  -  CURRENT   -
                                (GIT: $a454be9e6$)
                ($2023-05-30 19:46:47 +0200 $)

                  !                     WARNING:                         !
                  !         This is a DEVELOPMENT version                !

                         (BUILD: $Mi 31. Mai 00:16:08 CEST 2023$)


 With contributions from (in alphabetic order):
   Daniel Aravena         : Magnetic Suceptibility
   Michael Atanasov       : Ab Initio Ligand Field Theory (pilot matlab implementation)
   Alexander A. Auer      : GIAO ZORA, VPT2 properties, NMR spectrum
   Ute Becker             : Parallelization
   Giovanni Bistoni       : ED, misc. LED, open-shell LED, HFLD
   Martin Brehm           : Molecular dynamics
   Dmytro Bykov           : SCF Hessian
   Vijay G. Chilkuri      : MRCI spin determinant printing, contributions to CSF-ICE
   Dipayan Datta          : RHF DLPNO-CCSD density
   Achintya Kumar Dutta   : EOM-CC, STEOM-CC
   Dmitry Ganyushin       : Spin-Orbit,Spin-Spin,Magnetic field MRCI
   Miquel Garcia          : C-PCM and meta-GGA Hessian, CCSD/C-PCM, Gaussian charge scheme
   Yang Guo               : DLPNO-NEVPT2, F12-NEVPT2, CIM, IAO-localization
   Andreas Hansen         : Spin unrestricted coupled pair/coupled cluster methods
   Benjamin Helmich-Paris : MC-RPA, TRAH-(SCF,CASSCF), AVAS, COSX integrals, SCF dyn. polar.
   Lee Huntington         : MR-EOM, pCC
   Robert Izsak           : Overlap fitted RIJCOSX, COSX-SCS-MP3, EOM
   Marcus Kettner         : VPT2
   Christian Kollmar      : KDIIS, OOCD, Brueckner-CCSD(T), CCSD density, CASPT2, CASPT2-K, improved NEVPT2
   Simone Kossmann        : Meta GGA functionals, TD-DFT gradient, OOMP2, MP2 Hessian
   Martin Krupicka        : Initial AUTO-CI
   Lucas Lang             : DCDCAS
   Marvin Lechner         : AUTO-CI (C++ implementation), FIC-MRCC
   Dagmar Lenk            : GEPOL surface, SMD
   Dimitrios Liakos       : Extrapolation schemes; Compound Job, initial MDCI parallelization
   Dimitrios Manganas     : Further ROCIS development; embedding schemes
   Dimitrios Pantazis     : SARC Basis sets
   Anastasios Papadopoulos: AUTO-CI, single reference methods and gradients
   Taras Petrenko         : DFT Hessian,TD-DFT gradient, ASA, ECA, R-Raman, ABS, FL, XAS/XES, NRVS
   Peter Pinski           : DLPNO-MP2, DLPNO-MP2 Gradient
   Christoph Reimann      : Effective Core Potentials
   Marius Retegan         : Local ZFS, SOC
   Christoph Riplinger    : Optimizer, TS searches, QM/MM, DLPNO-CCSD(T), (RO)-DLPNO pert. Triples
   Tobias Risthaus        : Range-separated hybrids, TD-DFT gradient, RPA, STAB
   Michael Roemelt        : Original ROCIS implementation
   Masaaki Saitow         : Open-shell DLPNO-CCSD energy and density
   Barbara Sandhoefer     : DKH picture change effects
   Avijit Sen             : IP-ROCIS
   Kantharuban Sivalingam : CASSCF convergence, NEVPT2, FIC-MRCI
   Bernardo de Souza      : ESD, SOC TD-DFT
   Georgi Stoychev        : AutoAux, RI-MP2 NMR, DLPNO-MP2 response
   Willem Van den Heuvel  : Paramagnetic NMR
   Boris Wezisla          : Elementary symmetry handling
   Frank Wennmohs         : Technical directorship


 We gratefully acknowledge several colleagues who have allowed us to
 interface, adapt or use parts of their codes:
   Stefan Grimme, W. Hujo, H. Kruse, P. Pracht,  : VdW corrections, initial TS optimization,
                  C. Bannwarth, S. Ehlert          DFT functionals, gCP, sTDA/sTD-DF
   Ed Valeev, F. Pavosevic, A. Kumar             : LibInt (2-el integral package), F12 methods
   Garnet Chan, S. Sharma, J. Yang, R. Olivares  : DMRG
   Ulf Ekstrom                                   : XCFun DFT Library
   Mihaly Kallay                                 : mrcc  (arbitrary order and MRCC methods)
   Jiri Pittner, Ondrej Demel                    : Mk-CCSD
   Frank Weinhold                                : gennbo (NPA and NBO analysis)
   Christopher J. Cramer and Donald G. Truhlar   : smd solvation model
   Lars Goerigk                                  : TD-DFT with DH, B97 family of functionals
   V. Asgeirsson, H. Jonsson                     : NEB implementation
   FAccTs GmbH                                   : IRC, NEB, NEB-TS, DLPNO-Multilevel, CI-OPT
                                                   MM, QMMM, 2- and 3-layer-ONIOM, Crystal-QMMM,
                                                   LR-CPCM, SF, NACMEs, symmetry and pop. for TD-DFT,
                                                   nearIR, NL-DFT gradient (VV10), updates on ESD,
                                                   ML-optimized integration grids
   S Lehtola, MJT Oliveira, MAL Marques          : LibXC Library
   Liviu Ungur et al                             : ANISO software


 Your calculation uses the libint2 library for the computation of 2-el integrals
 For citations please refer to: http://libint.valeyev.net

 Your ORCA version has been built with support for libXC version: 5.2.2
 For citations please refer to: https://tddft.org/programs/libxc/

 This ORCA versions uses:
   CBLAS   interface :  Fast vector & matrix operations
   LAPACKE interface :  Fast linear algebra routines
   SCALAPACK package :  Parallel linear algebra routines
   Shared memory     :  Shared parallel matrices


================================================================================

----- Orbital basis set information -----
Your calculation utilizes the basis: def2-TZVP
   F. Weigend and R. Ahlrichs, Phys. Chem. Chem. Phys. 7, 3297 (2005).

----- AuxC basis set information -----
Your calculation utilizes the auxiliary basis: def2-TZVP/C
  H-La, Hf-Rn : A. Hellweg, C. Hattig, S. Hofener and W. Klopper, Theor. Chem. Acc. 117, 587 (2007).
        Ce-Lu : J. Chmela and M. E. Harding, Mol. Phys. (2018).

================================================================================
                                        WARNINGS
                       Please study these warnings very carefully!
================================================================================


INFO   : the flag for use of the SHARK integral package has been found!

================================================================================
                                       INPUT FILE
================================================================================
NAME = mol.inp
|  1> ! def2-TZVP def2-TZVP/C moread
|  2> 
|  3> %moinp "cas_2_2.gbw"
|  4> 
|  5> %maxcore 12000
|  6> 
|  7> %pal
|  8>   nprocs 24
|  9> end
| 10> 
| 11> %casscf
| 12>   nel 12
| 13>   norb 60
| 14>   mult 3,1
| 15>   nroots 1,3
| 16>   maxiter 1
| 17>   cistep ice
| 18>   ci
| 19>     icetype csfs
| 20>     tgen 1e-4
| 21>     tvar 1e-10
| 22>     csfciwithri 0
| 23>     cibufferlength 10000000
| 24>   end
| 25>   refs
| 26>     {2 2 2 2 2 1 1}
| 27>   end
| 28>   refs
| 29>     {2 2 2 2 2 2 0}
| 30>     {2 2 2 2 2 0 2}
| 31>     {2 2 2 2 2 1 -1}
| 32>   end
| 33>   rel
| 34>     dosoc true
| 35>     dossc true
| 36>   end
| 37> end
| 38> 
| 39> *xyz 0 3
| 40> O 0.0 0.0 0.0
| 41> O 0.0 0.0 1.2058
| 42> * 
| 43> 
| 44>                          ****END OF INPUT****
================================================================================

                       ****************************
                       * Single Point Calculation *
                       ****************************

---------------------------------
CARTESIAN COORDINATES (ANGSTROEM)
---------------------------------
  O      0.000000    0.000000    0.000000
  O      0.000000    0.000000    1.205800

----------------------------
CARTESIAN COORDINATES (A.U.)
----------------------------
  NO LB      ZA    FRAG     MASS         X           Y           Z
   0 O     8.0000    0    15.999    0.000000    0.000000    0.000000
   1 O     8.0000    0    15.999    0.000000    0.000000    2.278632

--------------------------------
INTERNAL COORDINATES (ANGSTROEM)
--------------------------------
 O      0   0   0     0.000000000000     0.00000000     0.00000000
 O      1   0   0     1.205800000000     0.00000000     0.00000000

---------------------------
INTERNAL COORDINATES (A.U.)
---------------------------
 O      0   0   0     0.000000000000     0.00000000     0.00000000
 O      1   0   0     2.278631772282     0.00000000     0.00000000

---------------------
BASIS SET INFORMATION
---------------------
There are 1 groups of distinct atoms

 Group   1 Type O   : 11s6p2d1f contracted to 5s3p2d1f pattern {62111/411/11/1}

---------------------------------
AUXILIARY/C BASIS SET INFORMATION
---------------------------------
There are 1 groups of distinct atoms

 Group   1 Type O   : 8s6p5d3f1g contracted to 8s6p4d3f1g pattern {11111111/111111/2111/111/1}



           ************************************************************
           *        Program running with 24 parallel MPI-processes    *
           *              working on a common directory               *
           ************************************************************
------------------------------------------------------------------------------
                           ORCA GTO INTEGRAL CALCULATION
------------------------------------------------------------------------------
------------------------------------------------------------------------------
                   ___                                                        
                  /   \      - P O W E R E D   B Y -                         
                 /     \                                                     
                 |  |  |   _    _      __       _____    __    __             
                 |  |  |  | |  | |    /  \     |  _  \  |  |  /  |          
                  \  \/   | |  | |   /    \    | | | |  |  | /  /          
                 / \  \   | |__| |  /  /\  \   | |_| |  |  |/  /          
                |  |  |   |  __  | /  /__\  \  |    /   |      \           
                |  |  |   | |  | | |   __   |  |    \   |  |\   \          
                \     /   | |  | | |  |  |  |  | |\  \  |  | \   \       
                 \___/    |_|  |_| |__|  |__|  |_| \__\ |__|  \__/        
                                                                              
                      - O R C A' S   B I G   F R I E N D -                    
                                      &                                       
                       - I N T E G R A L  F E E D E R -                       
                                                                              
 v1 FN, 2020, v2 2021                                                         
------------------------------------------------------------------------------


----------------------
SHARK INTEGRAL PACKAGE
----------------------

Number of atoms                             ...      2
Number of basis functions                   ...     62
Number of shells                            ...     22
Maximum angular momentum                    ...      3
Integral batch strategy                     ... SHARK/LIBINT Hybrid
RI-J (if used) integral strategy            ... SPLIT-RIJ (Revised 2003 algorithm where possible)
Printlevel                                  ...      1
Contraction scheme used                     ... SEGMENTED contraction
Prescreening option                         ... SCHWARTZ
   Thresh                                   ... 1.000e-10
   Tcut                                     ... 1.000e-11
   Tpresel                                  ... 1.000e-11 
Coulomb Range Separation                    ... NOT USED
Exchange Range Separation                   ... NOT USED
Finite Nucleus Model                        ... NOT USED
Auxiliary Coulomb fitting basis             ... NOT available
Auxiliary J/K fitting basis                 ... NOT available
Auxiliary Correlation fitting basis         ... AVAILABLE
   # of basis functions in Aux-C            ...    152
   # of shells in Aux-C                     ...     44
   Maximum angular momentum in Aux-C        ...      4
Auxiliary 'external' fitting basis          ... NOT available

Calculating pre-screening integrals         ... done (  0.0 sec) Dimension = 22
Organizing shell pair data                  ... done (  0.0 sec)
Shell pair information
Total number of shell pairs                 ...       253
Shell pairs after pre-screening             ...       252
Total number of primitive shell pairs       ...       864
Primitive shell pairs kept                  ...       783
          la=0 lb=0:     54 shell pairs
          la=1 lb=0:     60 shell pairs
          la=1 lb=1:     21 shell pairs
          la=2 lb=0:     40 shell pairs
          la=2 lb=1:     24 shell pairs
          la=2 lb=2:     10 shell pairs
          la=3 lb=0:     20 shell pairs
          la=3 lb=1:     12 shell pairs
          la=3 lb=2:      8 shell pairs
          la=3 lb=3:      3 shell pairs

Calculating one electron integrals          ... done (  0.0 sec)
Calculating RI/C V-Matrix + Cholesky decomp.... done (  0.0 sec)
Calculating Nuclear repulsion               ... done (  0.0 sec) ENN=     28.087030462100 Eh

-------------------
DFT GRID GENERATION
-------------------

General Integration Accuracy     IntAcc      ... 4.388
Radial Grid Type                 RadialGrid  ... OptM3 with GC (2021)
Angular Grid (max. ang.)         AngularGrid ... 4 (Lebedev-302)
Angular grid pruning method      GridPruning ... 4 (adaptive)
Weight generation scheme         WeightScheme... mBecke (2022)
Basis function cutoff            BFCut       ... 1.0000e-10
Integration weight cutoff        WCut        ... 1.0000e-14
Angular grids for H and He will be reduced by one unit
Partially contracted basis set               ... off
Rotationally invariant grid construction     ... off

Total number of grid points                  ...    12260
Total number of batches                      ...      192
Average number of points per batch           ...       63
Average number of grid points per atom       ...     6130
Initializing poperty integral containers    ... done (  0.0 sec)

SHARK setup successfully completed in   0.3 seconds

Maximum memory used throughout the entire GTOINT-calculation: 14.0 MB


           ************************************************************
           *        Program running with 24 parallel MPI-processes    *
           *              working on a common directory               *
           ************************************************************

------------------------------------------------------------------------------
                         ORCA PROPERTY INTEGRAL CALCULATIONS
------------------------------------------------------------------------------

GBWName                                   ... mol.gbw
Number of atoms                           ...      2
Number of basis functions                 ...     62
Max core memory                           ...  12000 MB

Dipole integrals                          ... YES
Quadrupole integrals                      ...  NO
Linear Momentum integrals                 ...  NO
Angular Momentum integrals                ...  NO
Higher Moments length integrals           ...  NO
Higher Moments velocity integrals         ...  NO
Kinetic energy integrals                  ...  NO
GIAO Right Hand Sides                     ...  NO
SOC integrals                             ...  NO
EPR diamagnetic integrals (GIAO)          ...  NO
EPR gauge integrals                       ...  NO
Field gradient integrals                  ...  NO (   0 nuclei)
Spin-dipole/Fermi contact integrals       ...  NO (   0 nuclei)
Nucleus-orbit integrals                   ...  NO (   0 nuclei)
Geometric perturbations                   ...  NO (   2 nuclei)

Calculating integrals                     ... Electric Dipole (Length)     done (  0.0 sec)

Property integrals calculated in   0.0 sec

Maximum memory used throughout the entire PROPINT-calculation: 7.0 MB


           ************************************************************
           *        Program running with 24 parallel MPI-processes    *
           *              working on a common directory               *
           ************************************************************
-------------------------------------------------------------------------------
                                 ORCA SCF
-------------------------------------------------------------------------------

------------
SCF SETTINGS
------------
Hamiltonian:
 Ab initio Hamiltonian  Method          .... Hartree-Fock(GTOs)


General Settings:
 Integral files         IntName         .... mol
 Hartree-Fock type      HFTyp           .... CASSCF
 Total Charge           Charge          ....    0
 Multiplicity           Mult            ....    3
 Number of Electrons    NEL             ....   16
 Basis Dimension        Dim             ....   62
 Nuclear Repulsion      ENuc            ....     28.0870304621 Eh


Diagonalization of the overlap matrix:
Smallest eigenvalue                        ... 1.850e-03
Time for diagonalization                   ...    0.034 sec
Threshold for overlap eigenvalues          ... 1.000e-08
Number of eigenvalues below threshold      ... 0
Time for construction of square roots      ...    0.001 sec
Total time needed                          ...    0.036 sec

---------------------
INITIAL GUESS: MOREAD
---------------------


WARNING!!!!!!!
Your GBWFile is either corrupt or from a different ORCA version!
Please be VERY careful with your calculation results!!!

Data_size, sizeof( TOrcaInfo ): 770368, 776208
Guess MOs are being read from file: cas_2_2.gbw
Input Geometry matches current geometry (good)
Input basis set matches current basis set (good)
MOs were renormalized
Gram-Schmidt orthogonalization of all MOs with pivot on actives
                      ------------------
                      INITIAL GUESS DONE (   0.0 sec)
                      ------------------


 ... the calculation is a CASSCF calculation -I'm leaving here GOOD LUCK!!!



           ************************************************************
           *        Program running with 24 parallel MPI-processes    *
           *              working on a common directory               *
           ************************************************************
-------------------------------------------------------------------------------
                              ORCA-CASSCF
-------------------------------------------------------------------------------

Setting up the integral package     ... done
Setting up CIPSI                      ... 


Checking CIPSI (ICE) Settings:
     MaxDim    10
     UsingRI   0
     CIPSISweepWindow   -1
     CIETol    1.000e-08
     CIRTol    1.000e-08
     NGMat     512
done (  0.0 sec)

SYSTEM-SPECIFIC SETTINGS:
Number of active electrons          ...   12
Number of active orbitals           ...   60
Total number of electrons           ...   16
Total number of orbitals            ...   62

Determined orbital ranges:
   Internal       0 -    1 (   2 orbitals)
   Active         2 -   61 (  60 orbitals)
   External      62 -   61 (   0 orbitals)
Number of rotation parameters      ...    120

CI-STEP:
CI strategy                         ... ICE (approximate)
Number of multiplicity blocks       ...    2
BLOCK  0 WEIGHT=   0.5000
  Multiplicity                      ...    3
  #(Roots)                          ...    1
    ROOT=0 WEIGHT=    0.500000

BLOCK  1 WEIGHT=   0.5000
  Multiplicity                      ...    1
  #(Roots)                          ...    3
    ROOT=0 WEIGHT=    0.166667
    ROOT=1 WEIGHT=    0.166667
    ROOT=2 WEIGHT=    0.166667

  PrintLevel                        ...    1
  N(GuessMat)                       ...       512
  MaxDim(CI)                        ...        10
  MaxIter(CI)                       ...        64
  Energy Tolerance CI               ... -1.00e+00
  Residual Tolerance CI             ... -1.00e+00
  Shift(CI)                         ...  1.00e-04
  ICE TGen                          ... 1.000e-04
  ICE TVar                          ... 1.000e-10
  ICE Type                          ... 1

INTEGRAL-TRANSFORMATION-STEP:
  Algorithm                         ... EXACT

ORBITAL-IMPROVEMENT-STEP:
  MaxMacroIter 1 detected                >>> CAS-CI. Check your FINAL ORBITAL options!

SCF-SETTINGS:
  Incremental                       ... on
  RIJCOSX approximation             ... off
  RI-JK approximation               ... off
  AO integral handling              ... DIRECT
  Integral Neglect Thresh           ...  1.00e-10
  Primitive cutoff TCut             ...  1.00e-11
  Energy convergence tolerance      ...  1.00e-07
  Orbital gradient convergence      ...  1.00e-03
  Max. number of iterations         ...         1  


PROPERTIES-SETTINGS:
  Spin orbit coupling               ... true

FINAL ORBITALS:
  Active   Orbitals                 ... unchanged 
  Internal Orbitals                 ... canonical 
  External Orbitals                 ... canonical 

------------------
CAS-SCF ITERATIONS
------------------


MACRO-ITERATION   1: 
   --- Inactive Energy E0 = -102.41516137 Eh
   --- All densities will be recomputed

                       ****Iteration    0****
  T(sigma)=     0.184 sec T(BLAS)=    0.000 NAv(S)=3087.0 NMax(S)=441
   Maximum residual norm  :     0.000000000000

      *** CONVERGENCE OF RESIDUAL NORM REACHED ***
STATE   0 MULT= 3: E=   -149.6604730630 Eh W=  0.5000 DE= 0.000 eV      0.0 cm**-1
      1.00000 ( 1.000000000) CSF = 2 2 2 2 2 1+1+0 0 0 0 0 0 0 0 0 0 0 0 0 0 0 0 0 0 0 0 0 0 0 0 0 0 0 0 0 0 0 0 0 0 0 0 0 0 0 0 0 0 0 0 0 0 0 0 0 0 0 0 0 


                  **********************************
                  *  ICECI/CSF MACROITERATION   1  *
                  **********************************

   # of selected CSFs                    ...  32254

                       ****Iteration    0****
  T(sigma)=     4.790 sec T(BLAS)=    0.000 NAv(S)=325659.0 NMax(S)=131130
   Maximum residual norm  :     2.576006862247

                       ****Iteration    1****
  T(sigma)=     4.793 sec T(BLAS)=    0.000 NAv(S)=325659.0 NMax(S)=131130
   Maximum residual norm  :     0.241522157289

                       ****Iteration    2****
  T(sigma)=     4.790 sec T(BLAS)=    0.000 NAv(S)=325659.0 NMax(S)=131130
   Maximum residual norm  :     0.005166985530

                       ****Iteration    3****
  T(sigma)=     4.782 sec T(BLAS)=    0.000 NAv(S)=325659.0 NMax(S)=131130
   Maximum residual norm  :     0.000223149667

                       ****Iteration    4****
  T(sigma)=     4.857 sec T(BLAS)=    0.000 NAv(S)=325659.0 NMax(S)=131130
   Maximum residual norm  :     0.000021791555

                       ****Iteration    5****
  T(sigma)=     5.004 sec T(BLAS)=    0.000 NAv(S)=325659.0 NMax(S)=131130
   Maximum residual norm  :     0.000001406074

                       ****Iteration    6****
  T(sigma)=     4.997 sec T(BLAS)=    0.000 NAv(S)=325659.0 NMax(S)=131130
   Maximum residual norm  :     0.000000068448

                       ****Iteration    7****
  T(sigma)=     4.837 sec T(BLAS)=    0.000 NAv(S)=325659.0 NMax(S)=131130
   Maximum residual norm  :     0.000000003944

      *** CONVERGENCE OF RESIDUAL NORM REACHED ***
STATE   0 MULT= 3: E=   -150.0845493370 Eh W=  0.5000 DE= 0.000 eV      0.0 cm**-1
      0.91161 ( 0.954780947) CSF = 2 2 2 2 2 1+1+0 0 0 0 0 0 0 0 0 0 0 0 0 0 0 0 0 0 0 0 0 0 0 0 0 0 0 0 0 0 0 0 0 0 0 0 0 0 0 0 0 0 0 0 0 0 0 0 0 0 0 0 0 
      0.00677 (-0.082303406) CSF = 2 2 2 1+1+2 2 0 0 0 0 0 0 0 0 0 0 0 0 0 0 0 0 0 0 0 0 0 0 0 0 0 0 0 0 0 0 0 0 0 0 0 0 0 0 0 0 0 0 0 0 0 0 0 0 0 0 0 0 0 

Resetting TVAR
   # of selected  CSFs                        ...  32254
   # of generator CSFs                        ...    126
   # of NEW generator CSFs                    ...    125
   # of S+D CSFs generated                    ... 25856614
   Selecting from the generated CSFs          ...    # of CSFs after Selection                  ... 2223712
   # of NEW selected CSFs                     ... 2191458

                  **********************************
                  *  ICECI/CSF MACROITERATION   2  *
                  **********************************

   # of selected CSFs                    ... 2223712

                       ****Iteration    0****
  T(sigma)=  2511.297 sec T(BLAS)=    0.000 NAv(S)=785710.6 NMax(S)=240867
   Maximum residual norm  :     0.275107863713

                       ****Iteration    1****
  T(sigma)=  2502.092 sec T(BLAS)=    0.000 NAv(S)=785710.6 NMax(S)=240867
   Maximum residual norm  :     0.025769844957

                       ****Iteration    2****
  T(sigma)=  2476.724 sec T(BLAS)=    0.000 NAv(S)=785710.6 NMax(S)=240867
   Maximum residual norm  :     0.004196928044

                       ****Iteration    3****
  T(sigma)=  2521.948 sec T(BLAS)=    0.000 NAv(S)=785710.6 NMax(S)=240867
   Maximum residual norm  :     0.000569821236

                       ****Iteration    4****
  T(sigma)=  2517.922 sec T(BLAS)=    0.000 NAv(S)=785710.6 NMax(S)=240867
   Maximum residual norm  :     0.000099947478

                       ****Iteration    5****
  T(sigma)=  2484.174 sec T(BLAS)=    0.000 NAv(S)=785710.6 NMax(S)=240867
   Maximum residual norm  :     0.000025929894
WARNING: Failed to orthogonalize vector 0 in Davidson
         Increasing orthogonality tolerance to              ... 1.0e-15
         Please check your results carefully!

                       ****Iteration    6****
  T(sigma)=  2493.686 sec T(BLAS)=    0.000 NAv(S)=785710.6 NMax(S)=240867
   Maximum residual norm  :     0.000005681819

                       ****Iteration    7****
  T(sigma)=  2502.408 sec T(BLAS)=    0.000 NAv(S)=785710.6 NMax(S)=240867
   Maximum residual norm  :     0.000001014946

                       ****Iteration    8****
  T(sigma)=  2519.915 sec T(BLAS)=    0.000 NAv(S)=785710.6 NMax(S)=240867
   Maximum residual norm  :     0.000000218640

                       ****Iteration    9****
  T(sigma)=  2503.695 sec T(BLAS)=    0.000 NAv(S)=785710.6 NMax(S)=240867
   Maximum residual norm  :     0.000000041811
   Rebuilding the expansion space

                       ****Iteration   10****
  T(sigma)=  2525.532 sec T(BLAS)=    0.000 NAv(S)=785710.6 NMax(S)=240867

         *** CONVERGENCE OF ENERGIES REACHED ***
STATE   0 MULT= 3: E=   -150.1223246271 Eh W=  0.5000 DE= 0.000 eV      0.0 cm**-1
      0.88190 (-0.939092747) CSF = 2 2 2 2 2 1+1+0 0 0 0 0 0 0 0 0 0 0 0 0 0 0 0 0 0 0 0 0 0 0 0 0 0 0 0 0 0 0 0 0 0 0 0 0 0 0 0 0 0 0 0 0 0 0 0 0 0 0 0 0 
      0.01294 ( 0.113738257) CSF = 2 2 2 1+1+2 2 0 0 0 0 0 0 0 0 0 0 0 0 0 0 0 0 0 0 0 0 0 0 0 0 0 0 0 0 0 0 0 0 0 0 0 0 0 0 0 0 0 0 0 0 0 0 0 0 0 0 0 0 0 
      0.00279 (-0.052805234) CSF = 2 2 1+1+2 1+2 0 0 0 0 0 0 0 1-0 0 0 0 0 0 0 0 0 0 0 0 0 0 0 0 0 0 0 0 0 0 0 0 0 0 0 0 0 0 0 0 0 0 0 0 0 0 0 0 0 0 0 0 0 
      0.00279 (-0.052795636) CSF = 2 2 1+2 1+2 1+0 0 0 0 0 0 0 1-0 0 0 0 0 0 0 0 0 0 0 0 0 0 0 0 0 0 0 0 0 0 0 0 0 0 0 0 0 0 0 0 0 0 0 0 0 0 0 0 0 0 0 0 0 
      0.00256 ( 0.050598000) CSF = 2 2 0 2 2 1+1+0 0 0 0 0 0 0 2 0 0 0 0 0 0 0 0 0 0 0 0 0 0 0 0 0 0 0 0 0 0 0 0 0 0 0 0 0 0 0 0 0 0 0 0 0 0 0 0 0 0 0 0 0 

Resetting TVAR
   # of selected  CSFs                        ... 2223654
   # of generator CSFs                        ...    138
   # of NEW generator CSFs                    ...     12
   # of S+D CSFs generated                    ... 4648915
   Selecting from the generated CSFs          ...    # of CSFs after Selection                  ... 2418407
   # of NEW selected CSFs                     ... 194753
   maximum energy change                ... 3.775e-02 Eh

                  **********************************
                  *  ICECI/CSF MACROITERATION   3  *
                  **********************************

   # of selected CSFs                    ... 2418407

                       ****Iteration    0****
  T(sigma)=  4622.029 sec T(BLAS)=    0.000 NAv(S)=806858.9 NMax(S)=260913
   Maximum residual norm  :     0.005836454932

                       ****Iteration    1****
  T(sigma)=  4426.213 sec T(BLAS)=    0.000 NAv(S)=806858.9 NMax(S)=260913
   Maximum residual norm  :     0.000124118332

                       ****Iteration    2****
  T(sigma)=  4466.641 sec T(BLAS)=    0.000 NAv(S)=806858.9 NMax(S)=260913
   Maximum residual norm  :     0.000017902660

                       ****Iteration    3****
  T(sigma)=  4446.470 sec T(BLAS)=    0.000 NAv(S)=806858.9 NMax(S)=260913
   Maximum residual norm  :     0.000003055528

                       ****Iteration    4****
  T(sigma)=  4464.328 sec T(BLAS)=    0.000 NAv(S)=806858.9 NMax(S)=260913
   Maximum residual norm  :     0.000000484466

                       ****Iteration    5****
  T(sigma)=  4500.315 sec T(BLAS)=    0.000 NAv(S)=806858.9 NMax(S)=260913
   Maximum residual norm  :     0.000000075761

                       ****Iteration    6****
  T(sigma)=  4438.048 sec T(BLAS)=    0.000 NAv(S)=806858.9 NMax(S)=260913
   Maximum residual norm  :     0.000000014545

                       ****Iteration    7****
  T(sigma)=  4602.872 sec T(BLAS)=    0.000 NAv(S)=806858.9 NMax(S)=260913

         *** CONVERGENCE OF ENERGIES REACHED ***
STATE   0 MULT= 3: E=   -150.1230090231 Eh W=  0.5000 DE= 0.000 eV      0.0 cm**-1
      0.88131 ( 0.938782729) CSF = 2 2 2 2 2 1+1+0 0 0 0 0 0 0 0 0 0 0 0 0 0 0 0 0 0 0 0 0 0 0 0 0 0 0 0 0 0 0 0 0 0 0 0 0 0 0 0 0 0 0 0 0 0 0 0 0 0 0 0 0 
      0.01301 (-0.114076878) CSF = 2 2 2 1+1+2 2 0 0 0 0 0 0 0 0 0 0 0 0 0 0 0 0 0 0 0 0 0 0 0 0 0 0 0 0 0 0 0 0 0 0 0 0 0 0 0 0 0 0 0 0 0 0 0 0 0 0 0 0 0 
      0.00281 ( 0.052984003) CSF = 2 2 1+1+2 1+2 0 0 0 0 0 0 0 1-0 0 0 0 0 0 0 0 0 0 0 0 0 0 0 0 0 0 0 0 0 0 0 0 0 0 0 0 0 0 0 0 0 0 0 0 0 0 0 0 0 0 0 0 0 
      0.00281 ( 0.052980883) CSF = 2 2 1+2 1+2 1+0 0 0 0 0 0 0 1-0 0 0 0 0 0 0 0 0 0 0 0 0 0 0 0 0 0 0 0 0 0 0 0 0 0 0 0 0 0 0 0 0 0 0 0 0 0 0 0 0 0 0 0 0 
      0.00257 (-0.050742556) CSF = 2 2 0 2 2 1+1+0 0 0 0 0 0 0 2 0 0 0 0 0 0 0 0 0 0 0 0 0 0 0 0 0 0 0 0 0 0 0 0 0 0 0 0 0 0 0 0 0 0 0 0 0 0 0 0 0 0 0 0 0 

Resetting TVAR
   # of selected  CSFs                        ... 2418342
   # of generator CSFs                        ...    138
   # of NEW generator CSFs                    ...      0


FINAL CIPSI ENERGIES
  Final CIPSI Energy Root   0:   -150.123009023 EH
   CI-PROBLEM SOLVED (68694.8 sec)
   DENSITIES MADE

                       ****Iteration    0****
  T(sigma)=     0.189 sec T(BLAS)=    0.000 NAv(S)=3121.0 NMax(S)=439
   Maximum residual norm  :     0.000000000000

      *** CONVERGENCE OF RESIDUAL NORM REACHED ***
STATE   0 MULT= 1: E=   -149.6134210895 Eh W=  0.1667 DE= 0.000 eV      0.0 cm**-1
      1.00000 (-1.000000000) CSF = 2 2 2 2 2 1+1-0 0 0 0 0 0 0 0 0 0 0 0 0 0 0 0 0 0 0 0 0 0 0 0 0 0 0 0 0 0 0 0 0 0 0 0 0 0 0 0 0 0 0 0 0 0 0 0 0 0 0 0 0 

STATE   1 MULT= 1: E=   -149.6134210886 Eh W=  0.1667 DE= 0.000 eV      0.0 cm**-1
      0.50000 ( 0.707106781) CSF = 2 2 2 2 2 0 2 0 0 0 0 0 0 0 0 0 0 0 0 0 0 0 0 0 0 0 0 0 0 0 0 0 0 0 0 0 0 0 0 0 0 0 0 0 0 0 0 0 0 0 0 0 0 0 0 0 0 0 0 0 
      0.50000 (-0.707106781) CSF = 2 2 2 2 2 2 0 0 0 0 0 0 0 0 0 0 0 0 0 0 0 0 0 0 0 0 0 0 0 0 0 0 0 0 0 0 0 0 0 0 0 0 0 0 0 0 0 0 0 0 0 0 0 0 0 0 0 0 0 0 

STATE   2 MULT= 1: E=   -149.5663691151 Eh W=  0.1667 DE= 1.280 eV  10326.7 cm**-1
      0.50000 ( 0.707106781) CSF = 2 2 2 2 2 2 0 0 0 0 0 0 0 0 0 0 0 0 0 0 0 0 0 0 0 0 0 0 0 0 0 0 0 0 0 0 0 0 0 0 0 0 0 0 0 0 0 0 0 0 0 0 0 0 0 0 0 0 0 0 
      0.50000 ( 0.707106781) CSF = 2 2 2 2 2 0 2 0 0 0 0 0 0 0 0 0 0 0 0 0 0 0 0 0 0 0 0 0 0 0 0 0 0 0 0 0 0 0 0 0 0 0 0 0 0 0 0 0 0 0 0 0 0 0 0 0 0 0 0 0 


                  **********************************
                  *  ICECI/CSF MACROITERATION   1  *
                  **********************************

   # of selected CSFs                    ...  29815

                       ****Iteration    0****
  T(sigma)=     2.827 sec T(BLAS)=    0.000 NAv(S)=198583.6 NMax(S)=75870
   Maximum residual norm  :     2.640784385351

                       ****Iteration    1****
  T(sigma)=     2.820 sec T(BLAS)=    0.000 NAv(S)=198583.6 NMax(S)=75870
   Maximum residual norm  :     0.318564083262

                       ****Iteration    2****
  T(sigma)=     3.167 sec T(BLAS)=    0.000 NAv(S)=198583.6 NMax(S)=75870
   Maximum residual norm  :     0.007232633777

                       ****Iteration    3****
  T(sigma)=     2.992 sec T(BLAS)=    0.000 NAv(S)=198583.6 NMax(S)=75870
   Maximum residual norm  :     0.000314461106

                       ****Iteration    4****
  T(sigma)=     2.827 sec T(BLAS)=    0.000 NAv(S)=198583.6 NMax(S)=75870
   Maximum residual norm  :     0.000027255584

                       ****Iteration    5****
  T(sigma)=     2.832 sec T(BLAS)=    0.000 NAv(S)=198583.6 NMax(S)=75870
   Maximum residual norm  :     0.000002278458

                       ****Iteration    6****
  T(sigma)=     2.833 sec T(BLAS)=    0.000 NAv(S)=198583.6 NMax(S)=75870
   Maximum residual norm  :     0.000000100233

                       ****Iteration    7****
  T(sigma)=     2.832 sec T(BLAS)=    0.000 NAv(S)=198583.6 NMax(S)=75870
   Maximum residual norm  :     0.000000006110

      *** CONVERGENCE OF RESIDUAL NORM REACHED ***
STATE   0 MULT= 1: E=   -150.0436881099 Eh W=  0.1667 DE= 0.000 eV      0.0 cm**-1
      0.45345 ( 0.673386250) CSF = 2 2 2 2 2 2 0 0 0 0 0 0 0 0 0 0 0 0 0 0 0 0 0 0 0 0 0 0 0 0 0 0 0 0 0 0 0 0 0 0 0 0 0 0 0 0 0 0 0 0 0 0 0 0 0 0 0 0 0 0 
      0.45344 (-0.673382558) CSF = 2 2 2 2 2 0 2 0 0 0 0 0 0 0 0 0 0 0 0 0 0 0 0 0 0 0 0 0 0 0 0 0 0 0 0 0 0 0 0 0 0 0 0 0 0 0 0 0 0 0 0 0 0 0 0 0 0 0 0 0 
      0.00800 (-0.089422916) CSF = 2 2 2 0 2 2 2 0 0 0 0 0 0 0 0 0 0 0 0 0 0 0 0 0 0 0 0 0 0 0 0 0 0 0 0 0 0 0 0 0 0 0 0 0 0 0 0 0 0 0 0 0 0 0 0 0 0 0 0 0 
      0.00800 ( 0.089422280) CSF = 2 2 2 2 0 2 2 0 0 0 0 0 0 0 0 0 0 0 0 0 0 0 0 0 0 0 0 0 0 0 0 0 0 0 0 0 0 0 0 0 0 0 0 0 0 0 0 0 0 0 0 0 0 0 0 0 0 0 0 0 

STATE   1 MULT= 1: E=   -150.0434892555 Eh W=  0.1667 DE= 0.005 eV     43.6 cm**-1
      0.90717 (-0.952452414) CSF = 2 2 2 2 2 1+1-0 0 0 0 0 0 0 0 0 0 0 0 0 0 0 0 0 0 0 0 0 0 0 0 0 0 0 0 0 0 0 0 0 0 0 0 0 0 0 0 0 0 0 0 0 0 0 0 0 0 0 0 0 
      0.01568 (-0.125237352) CSF = 2 2 2 1+1-2 2 0 0 0 0 0 0 0 0 0 0 0 0 0 0 0 0 0 0 0 0 0 0 0 0 0 0 0 0 0 0 0 0 0 0 0 0 0 0 0 0 0 0 0 0 0 0 0 0 0 0 0 0 0 

STATE   2 MULT= 1: E=   -150.0128864918 Eh W=  0.1667 DE= 0.838 eV   6760.2 cm**-1
      0.44778 (-0.669160540) CSF = 2 2 2 2 2 0 2 0 0 0 0 0 0 0 0 0 0 0 0 0 0 0 0 0 0 0 0 0 0 0 0 0 0 0 0 0 0 0 0 0 0 0 0 0 0 0 0 0 0 0 0 0 0 0 0 0 0 0 0 0 
      0.44777 (-0.669156715) CSF = 2 2 2 2 2 2 0 0 0 0 0 0 0 0 0 0 0 0 0 0 0 0 0 0 0 0 0 0 0 0 0 0 0 0 0 0 0 0 0 0 0 0 0 0 0 0 0 0 0 0 0 0 0 0 0 0 0 0 0 0 
      0.01272 ( 0.112789419) CSF = 2 2 2 2 0 2 2 0 0 0 0 0 0 0 0 0 0 0 0 0 0 0 0 0 0 0 0 0 0 0 0 0 0 0 0 0 0 0 0 0 0 0 0 0 0 0 0 0 0 0 0 0 0 0 0 0 0 0 0 0 
      0.01272 ( 0.112788911) CSF = 2 2 2 0 2 2 2 0 0 0 0 0 0 0 0 0 0 0 0 0 0 0 0 0 0 0 0 0 0 0 0 0 0 0 0 0 0 0 0 0 0 0 0 0 0 0 0 0 0 0 0 0 0 0 0 0 0 0 0 0 
      0.00302 ( 0.054927796) CSF = 2 0 2 2 2 2 2 0 0 0 0 0 0 0 0 0 0 0 0 0 0 0 0 0 0 0 0 0 0 0 0 0 0 0 0 0 0 0 0 0 0 0 0 0 0 0 0 0 0 0 0 0 0 0 0 0 0 0 0 0 

Resetting TVAR
   # of selected  CSFs                        ...  29815
   # of generator CSFs                        ...    377
   # of NEW generator CSFs                    ...    374
   # of S+D CSFs generated                    ... 37733220
   Selecting from the generated CSFs          ...    # of CSFs after Selection                  ... 3627819
   # of NEW selected CSFs                     ... 3598004

                  **********************************
                  *  ICECI/CSF MACROITERATION   2  *
                  **********************************

   # of selected CSFs                    ... 3627819

                       ****Iteration    0****
  T(sigma)=  4835.999 sec T(BLAS)=    0.000 NAv(S)=735922.2 NMax(S)=266291
   Maximum residual norm  :     0.370579648984

                       ****Iteration    1****
  T(sigma)=  4772.518 sec T(BLAS)=    0.000 NAv(S)=735922.2 NMax(S)=266291
   Maximum residual norm  :     0.036508316109
WARNING: Failed to orthogonalize vector 2 in Davidson
         Increasing orthogonality tolerance to              ... 1.0e-15
         Please check your results carefully!

                       ****Iteration    2****
  T(sigma)=  4836.880 sec T(BLAS)=    0.000 NAv(S)=735922.2 NMax(S)=266291
   Maximum residual norm  :     0.007006510761

                       ****Iteration    3****
  T(sigma)=  4804.836 sec T(BLAS)=    0.000 NAv(S)=735922.2 NMax(S)=266291
   Maximum residual norm  :     0.001500379742

                       ****Iteration    4****
  T(sigma)=  4813.288 sec T(BLAS)=    0.000 NAv(S)=735922.2 NMax(S)=266291
   Maximum residual norm  :     0.000345510796

                       ****Iteration    5****
  T(sigma)=  4790.994 sec T(BLAS)=    0.000 NAv(S)=735922.2 NMax(S)=266291
   Maximum residual norm  :     0.000086803946

                       ****Iteration    6****
  T(sigma)=  4780.542 sec T(BLAS)=    0.000 NAv(S)=735922.2 NMax(S)=266291
   Maximum residual norm  :     0.000016726988

                       ****Iteration    7****
  T(sigma)=  4803.973 sec T(BLAS)=    0.000 NAv(S)=735922.2 NMax(S)=266291
   Maximum residual norm  :     0.000002559127

                       ****Iteration    8****
  T(sigma)=  4809.163 sec T(BLAS)=    0.000 NAv(S)=735922.2 NMax(S)=266291
   Maximum residual norm  :     0.000000379233

                       ****Iteration    9****
  T(sigma)=  4817.655 sec T(BLAS)=    0.000 NAv(S)=735922.2 NMax(S)=266291
   Maximum residual norm  :     0.000000066808
   Rebuilding the expansion space

                       ****Iteration   10****
  T(sigma)=  4817.150 sec T(BLAS)=    0.000 NAv(S)=735922.2 NMax(S)=266291

         *** CONVERGENCE OF ENERGIES REACHED ***
STATE   0 MULT= 1: E=   -150.0886572919 Eh W=  0.1667 DE= 0.000 eV      0.0 cm**-1
      0.43387 (-0.658689261) CSF = 2 2 2 2 2 0 2 0 0 0 0 0 0 0 0 0 0 0 0 0 0 0 0 0 0 0 0 0 0 0 0 0 0 0 0 0 0 0 0 0 0 0 0 0 0 0 0 0 0 0 0 0 0 0 0 0 0 0 0 0 
      0.43323 ( 0.658202548) CSF = 2 2 2 2 2 2 0 0 0 0 0 0 0 0 0 0 0 0 0 0 0 0 0 0 0 0 0 0 0 0 0 0 0 0 0 0 0 0 0 0 0 0 0 0 0 0 0 0 0 0 0 0 0 0 0 0 0 0 0 0 
      0.01541 ( 0.124153931) CSF = 2 2 2 2 0 2 2 0 0 0 0 0 0 0 0 0 0 0 0 0 0 0 0 0 0 0 0 0 0 0 0 0 0 0 0 0 0 0 0 0 0 0 0 0 0 0 0 0 0 0 0 0 0 0 0 0 0 0 0 0 
      0.01539 (-0.124053249) CSF = 2 2 2 0 2 2 2 0 0 0 0 0 0 0 0 0 0 0 0 0 0 0 0 0 0 0 0 0 0 0 0 0 0 0 0 0 0 0 0 0 0 0 0 0 0 0 0 0 0 0 0 0 0 0 0 0 0 0 0 0 

STATE   1 MULT= 1: E=   -150.0877388390 Eh W=  0.1667 DE= 0.025 eV    201.6 cm**-1
      0.86743 (-0.931358672) CSF = 2 2 2 2 2 1+1-0 0 0 0 0 0 0 0 0 0 0 0 0 0 0 0 0 0 0 0 0 0 0 0 0 0 0 0 0 0 0 0 0 0 0 0 0 0 0 0 0 0 0 0 0 0 0 0 0 0 0 0 0 
      0.03095 (-0.175938402) CSF = 2 2 2 1+1-2 2 0 0 0 0 0 0 0 0 0 0 0 0 0 0 0 0 0 0 0 0 0 0 0 0 0 0 0 0 0 0 0 0 0 0 0 0 0 0 0 0 0 0 0 0 0 0 0 0 0 0 0 0 0 
      0.00258 ( 0.050774173) CSF = 2 2 0 2 2 1+1-0 0 0 0 0 0 0 2 0 0 0 0 0 0 0 0 0 0 0 0 0 0 0 0 0 0 0 0 0 0 0 0 0 0 0 0 0 0 0 0 0 0 0 0 0 0 0 0 0 0 0 0 0 

STATE   2 MULT= 1: E=   -150.0638497934 Eh W=  0.1667 DE= 0.675 eV   5444.6 cm**-1
      0.42478 ( 0.651750369) CSF = 2 2 2 2 2 2 0 0 0 0 0 0 0 0 0 0 0 0 0 0 0 0 0 0 0 0 0 0 0 0 0 0 0 0 0 0 0 0 0 0 0 0 0 0 0 0 0 0 0 0 0 0 0 0 0 0 0 0 0 0 
      0.42413 ( 0.651250741) CSF = 2 2 2 2 2 0 2 0 0 0 0 0 0 0 0 0 0 0 0 0 0 0 0 0 0 0 0 0 0 0 0 0 0 0 0 0 0 0 0 0 0 0 0 0 0 0 0 0 0 0 0 0 0 0 0 0 0 0 0 0 
      0.02319 (-0.152294288) CSF = 2 2 2 0 2 2 2 0 0 0 0 0 0 0 0 0 0 0 0 0 0 0 0 0 0 0 0 0 0 0 0 0 0 0 0 0 0 0 0 0 0 0 0 0 0 0 0 0 0 0 0 0 0 0 0 0 0 0 0 0 
      0.02316 (-0.152186091) CSF = 2 2 2 2 0 2 2 0 0 0 0 0 0 0 0 0 0 0 0 0 0 0 0 0 0 0 0 0 0 0 0 0 0 0 0 0 0 0 0 0 0 0 0 0 0 0 0 0 0 0 0 0 0 0 0 0 0 0 0 0 
      0.00408 (-0.063849711) CSF = 2 0 2 2 2 2 2 0 0 0 0 0 0 0 0 0 0 0 0 0 0 0 0 0 0 0 0 0 0 0 0 0 0 0 0 0 0 0 0 0 0 0 0 0 0 0 0 0 0 0 0 0 0 0 0 0 0 0 0 0 

Resetting TVAR
   # of selected  CSFs                        ... 3627819
   # of generator CSFs                        ...    457
   # of NEW generator CSFs                    ...     82
   # of S+D CSFs generated                    ... 16296612
   Selecting from the generated CSFs          ...    # of CSFs after Selection                  ... 4288015
   # of NEW selected CSFs                     ... 660196
   maximum energy change                ... 5.095e-02 Eh

                  **********************************
                  *  ICECI/CSF MACROITERATION   3  *
                  **********************************

   # of selected CSFs                    ... 4288015

                       ****Iteration    0****
  T(sigma)= 10318.961 sec T(BLAS)=    0.000 NAv(S)=792696.5 NMax(S)=253410
   Maximum residual norm  :     0.013056138592

                       ****Iteration    1****
  T(sigma)= 10389.383 sec T(BLAS)=    0.000 NAv(S)=792696.5 NMax(S)=253410
   Maximum residual norm  :     0.000241915367

                       ****Iteration    2****
  T(sigma)= 10023.964 sec T(BLAS)=    0.000 NAv(S)=792696.5 NMax(S)=253410
   Maximum residual norm  :     0.000036984427

                       ****Iteration    3****
  T(sigma)= 10420.785 sec T(BLAS)=    0.000 NAv(S)=792696.5 NMax(S)=253410
   Maximum residual norm  :     0.000006176161

                       ****Iteration    4****
  T(sigma)= 10553.674 sec T(BLAS)=    0.000 NAv(S)=792696.5 NMax(S)=253410
   Maximum residual norm  :     0.000001075765
WARNING: Failed to orthogonalize vector 2 in Davidson
         Increasing orthogonality tolerance to              ... 1.0e-15
         Please check your results carefully!

                       ****Iteration    5****
  T(sigma)= 10621.605 sec T(BLAS)=    0.000 NAv(S)=792696.5 NMax(S)=253410
   Maximum residual norm  :     0.000000210439

                       ****Iteration    6****
  T(sigma)= 10178.674 sec T(BLAS)=    0.000 NAv(S)=792696.5 NMax(S)=253410
   Maximum residual norm  :     0.000000044969

                       ****Iteration    7****
  T(sigma)= 10566.331 sec T(BLAS)=    0.000 NAv(S)=792696.5 NMax(S)=253410

         *** CONVERGENCE OF ENERGIES REACHED ***
STATE   0 MULT= 1: E=   -150.0897618233 Eh W=  0.1667 DE= 0.000 eV      0.0 cm**-1
      0.43425 ( 0.658978131) CSF = 2 2 2 2 2 0 2 0 0 0 0 0 0 0 0 0 0 0 0 0 0 0 0 0 0 0 0 0 0 0 0 0 0 0 0 0 0 0 0 0 0 0 0 0 0 0 0 0 0 0 0 0 0 0 0 0 0 0 0 0 
      0.43373 (-0.658585154) CSF = 2 2 2 2 2 2 0 0 0 0 0 0 0 0 0 0 0 0 0 0 0 0 0 0 0 0 0 0 0 0 0 0 0 0 0 0 0 0 0 0 0 0 0 0 0 0 0 0 0 0 0 0 0 0 0 0 0 0 0 0 
      0.01552 (-0.124567130) CSF = 2 2 2 2 0 2 2 0 0 0 0 0 0 0 0 0 0 0 0 0 0 0 0 0 0 0 0 0 0 0 0 0 0 0 0 0 0 0 0 0 0 0 0 0 0 0 0 0 0 0 0 0 0 0 0 0 0 0 0 0 
      0.01550 ( 0.124483107) CSF = 2 2 2 0 2 2 2 0 0 0 0 0 0 0 0 0 0 0 0 0 0 0 0 0 0 0 0 0 0 0 0 0 0 0 0 0 0 0 0 0 0 0 0 0 0 0 0 0 0 0 0 0 0 0 0 0 0 0 0 0 
      0.00251 (-0.050074482) CSF = 2 2 1+2 1+1-2 0 0 0 0 0 0 0 1-0 0 0 0 0 0 0 0 0 0 0 0 0 0 0 0 0 0 0 0 0 0 0 0 0 0 0 0 0 0 0 0 0 0 0 0 0 0 0 0 0 0 0 0 0 
      0.00250 (-0.050046802) CSF = 2 2 1+1+2 2 1-0 0 0 0 0 0 0 1-0 0 0 0 0 0 0 0 0 0 0 0 0 0 0 0 0 0 0 0 0 0 0 0 0 0 0 0 0 0 0 0 0 0 0 0 0 0 0 0 0 0 0 0 0 

STATE   1 MULT= 1: E=   -150.0891371916 Eh W=  0.1667 DE= 0.017 eV    137.1 cm**-1
      0.86814 (-0.931738050) CSF = 2 2 2 2 2 1+1-0 0 0 0 0 0 0 0 0 0 0 0 0 0 0 0 0 0 0 0 0 0 0 0 0 0 0 0 0 0 0 0 0 0 0 0 0 0 0 0 0 0 0 0 0 0 0 0 0 0 0 0 0 
      0.03115 (-0.176480745) CSF = 2 2 2 1+1-2 2 0 0 0 0 0 0 0 0 0 0 0 0 0 0 0 0 0 0 0 0 0 0 0 0 0 0 0 0 0 0 0 0 0 0 0 0 0 0 0 0 0 0 0 0 0 0 0 0 0 0 0 0 0 
      0.00260 ( 0.050994443) CSF = 2 2 0 2 2 1+1-0 0 0 0 0 0 0 2 0 0 0 0 0 0 0 0 0 0 0 0 0 0 0 0 0 0 0 0 0 0 0 0 0 0 0 0 0 0 0 0 0 0 0 0 0 0 0 0 0 0 0 0 0 
      0.00251 (-0.050095469) CSF = 2 2 1+2 1+2 1-0 0 0 0 0 0 0 1-0 0 0 0 0 0 0 0 0 0 0 0 0 0 0 0 0 0 0 0 0 0 0 0 0 0 0 0 0 0 0 0 0 0 0 0 0 0 0 0 0 0 0 0 0 
      0.00251 ( 0.050091892) CSF = 2 2 1+1+2 1-2 0 0 0 0 0 0 0 1-0 0 0 0 0 0 0 0 0 0 0 0 0 0 0 0 0 0 0 0 0 0 0 0 0 0 0 0 0 0 0 0 0 0 0 0 0 0 0 0 0 0 0 0 0 

STATE   2 MULT= 1: E=   -150.0650498328 Eh W=  0.1667 DE= 0.672 eV   5423.7 cm**-1
      0.42418 (-0.651287649) CSF = 2 2 2 2 2 2 0 0 0 0 0 0 0 0 0 0 0 0 0 0 0 0 0 0 0 0 0 0 0 0 0 0 0 0 0 0 0 0 0 0 0 0 0 0 0 0 0 0 0 0 0 0 0 0 0 0 0 0 0 0 
      0.42366 (-0.650891900) CSF = 2 2 2 2 2 0 2 0 0 0 0 0 0 0 0 0 0 0 0 0 0 0 0 0 0 0 0 0 0 0 0 0 0 0 0 0 0 0 0 0 0 0 0 0 0 0 0 0 0 0 0 0 0 0 0 0 0 0 0 0 
      0.02327 ( 0.152548494) CSF = 2 2 2 0 2 2 2 0 0 0 0 0 0 0 0 0 0 0 0 0 0 0 0 0 0 0 0 0 0 0 0 0 0 0 0 0 0 0 0 0 0 0 0 0 0 0 0 0 0 0 0 0 0 0 0 0 0 0 0 0 
      0.02325 ( 0.152466048) CSF = 2 2 2 2 0 2 2 0 0 0 0 0 0 0 0 0 0 0 0 0 0 0 0 0 0 0 0 0 0 0 0 0 0 0 0 0 0 0 0 0 0 0 0 0 0 0 0 0 0 0 0 0 0 0 0 0 0 0 0 0 
      0.00406 ( 0.063754769) CSF = 2 0 2 2 2 2 2 0 0 0 0 0 0 0 0 0 0 0 0 0 0 0 0 0 0 0 0 0 0 0 0 0 0 0 0 0 0 0 0 0 0 0 0 0 0 0 0 0 0 0 0 0 0 0 0 0 0 0 0 0 

Resetting TVAR
   # of selected  CSFs                        ... 4288015
   # of generator CSFs                        ...    463
   # of NEW generator CSFs                    ...      6
   # of S+D CSFs generated                    ... 1016044
   Selecting from the generated CSFs          ...    # of CSFs after Selection                  ... 4328638
   # of NEW selected CSFs                     ...  40623
   maximum energy change                ... 1.387e-03 Eh

                  **********************************
                  *  ICECI/CSF MACROITERATION   4  *
                  **********************************

   # of selected CSFs                    ... 4328638

                       ****Iteration    0****
  T(sigma)= 11482.898 sec T(BLAS)=    0.000 NAv(S)=792383.8 NMax(S)=226574
   Maximum residual norm  :     0.001025648368

                       ****Iteration    1****
  T(sigma)= 11280.256 sec T(BLAS)=    0.000 NAv(S)=792383.8 NMax(S)=226574
   Maximum residual norm  :     0.000013764585

                       ****Iteration    2****
  T(sigma)= 10942.699 sec T(BLAS)=    0.000 NAv(S)=792383.8 NMax(S)=226574
   Maximum residual norm  :     0.000001589374

                       ****Iteration    3****
  T(sigma)= 10859.055 sec T(BLAS)=    0.000 NAv(S)=792383.8 NMax(S)=226574
   Maximum residual norm  :     0.000000232819

                       ****Iteration    4****
  T(sigma)= 10981.688 sec T(BLAS)=    0.000 NAv(S)=792383.8 NMax(S)=226574
   Maximum residual norm  :     0.000000036021
WARNING: Failed to orthogonalize vector 1 in Davidson
         Increasing orthogonality tolerance to              ... 1.0e-15
         Please check your results carefully!

                       ****Iteration    5****
  T(sigma)= 11449.167 sec T(BLAS)=    0.000 NAv(S)=792383.8 NMax(S)=226574

         *** CONVERGENCE OF ENERGIES REACHED ***
STATE   0 MULT= 1: E=   -150.0898445320 Eh W=  0.1667 DE= 0.000 eV      0.0 cm**-1
      0.43424 ( 0.658966636) CSF = 2 2 2 2 2 0 2 0 0 0 0 0 0 0 0 0 0 0 0 0 0 0 0 0 0 0 0 0 0 0 0 0 0 0 0 0 0 0 0 0 0 0 0 0 0 0 0 0 0 0 0 0 0 0 0 0 0 0 0 0 
      0.43376 (-0.658604114) CSF = 2 2 2 2 2 2 0 0 0 0 0 0 0 0 0 0 0 0 0 0 0 0 0 0 0 0 0 0 0 0 0 0 0 0 0 0 0 0 0 0 0 0 0 0 0 0 0 0 0 0 0 0 0 0 0 0 0 0 0 0 
      0.01552 (-0.124595434) CSF = 2 2 2 2 0 2 2 0 0 0 0 0 0 0 0 0 0 0 0 0 0 0 0 0 0 0 0 0 0 0 0 0 0 0 0 0 0 0 0 0 0 0 0 0 0 0 0 0 0 0 0 0 0 0 0 0 0 0 0 0 
      0.01550 ( 0.124518524) CSF = 2 2 2 0 2 2 2 0 0 0 0 0 0 0 0 0 0 0 0 0 0 0 0 0 0 0 0 0 0 0 0 0 0 0 0 0 0 0 0 0 0 0 0 0 0 0 0 0 0 0 0 0 0 0 0 0 0 0 0 0 
      0.00251 (-0.050070193) CSF = 2 2 1+2 1+1-2 0 0 0 0 0 0 0 1-0 0 0 0 0 0 0 0 0 0 0 0 0 0 0 0 0 0 0 0 0 0 0 0 0 0 0 0 0 0 0 0 0 0 0 0 0 0 0 0 0 0 0 0 0 
      0.00250 (-0.050044781) CSF = 2 2 1+1+2 2 1-0 0 0 0 0 0 0 1-0 0 0 0 0 0 0 0 0 0 0 0 0 0 0 0 0 0 0 0 0 0 0 0 0 0 0 0 0 0 0 0 0 0 0 0 0 0 0 0 0 0 0 0 0 

STATE   1 MULT= 1: E=   -150.0891420512 Eh W=  0.1667 DE= 0.019 eV    154.2 cm**-1
      0.86820 ( 0.931770144) CSF = 2 2 2 2 2 1+1-0 0 0 0 0 0 0 0 0 0 0 0 0 0 0 0 0 0 0 0 0 0 0 0 0 0 0 0 0 0 0 0 0 0 0 0 0 0 0 0 0 0 0 0 0 0 0 0 0 0 0 0 0 
      0.03116 ( 0.176519130) CSF = 2 2 2 1+1-2 2 0 0 0 0 0 0 0 0 0 0 0 0 0 0 0 0 0 0 0 0 0 0 0 0 0 0 0 0 0 0 0 0 0 0 0 0 0 0 0 0 0 0 0 0 0 0 0 0 0 0 0 0 0 
      0.00260 (-0.050997994) CSF = 2 2 0 2 2 1+1-0 0 0 0 0 0 0 2 0 0 0 0 0 0 0 0 0 0 0 0 0 0 0 0 0 0 0 0 0 0 0 0 0 0 0 0 0 0 0 0 0 0 0 0 0 0 0 0 0 0 0 0 0 
      0.00251 ( 0.050087402) CSF = 2 2 1+2 1+2 1-0 0 0 0 0 0 0 1-0 0 0 0 0 0 0 0 0 0 0 0 0 0 0 0 0 0 0 0 0 0 0 0 0 0 0 0 0 0 0 0 0 0 0 0 0 0 0 0 0 0 0 0 0 
      0.00251 (-0.050082948) CSF = 2 2 1+1+2 1-2 0 0 0 0 0 0 0 1-0 0 0 0 0 0 0 0 0 0 0 0 0 0 0 0 0 0 0 0 0 0 0 0 0 0 0 0 0 0 0 0 0 0 0 0 0 0 0 0 0 0 0 0 0 

STATE   2 MULT= 1: E=   -150.0651525969 Eh W=  0.1667 DE= 0.672 eV   5419.3 cm**-1
      0.42411 (-0.651239888) CSF = 2 2 2 2 2 2 0 0 0 0 0 0 0 0 0 0 0 0 0 0 0 0 0 0 0 0 0 0 0 0 0 0 0 0 0 0 0 0 0 0 0 0 0 0 0 0 0 0 0 0 0 0 0 0 0 0 0 0 0 0 
      0.42364 (-0.650875097) CSF = 2 2 2 2 2 0 2 0 0 0 0 0 0 0 0 0 0 0 0 0 0 0 0 0 0 0 0 0 0 0 0 0 0 0 0 0 0 0 0 0 0 0 0 0 0 0 0 0 0 0 0 0 0 0 0 0 0 0 0 0 
      0.02328 ( 0.152576411) CSF = 2 2 2 0 2 2 2 0 0 0 0 0 0 0 0 0 0 0 0 0 0 0 0 0 0 0 0 0 0 0 0 0 0 0 0 0 0 0 0 0 0 0 0 0 0 0 0 0 0 0 0 0 0 0 0 0 0 0 0 0 
      0.02326 ( 0.152500932) CSF = 2 2 2 2 0 2 2 0 0 0 0 0 0 0 0 0 0 0 0 0 0 0 0 0 0 0 0 0 0 0 0 0 0 0 0 0 0 0 0 0 0 0 0 0 0 0 0 0 0 0 0 0 0 0 0 0 0 0 0 0 
      0.00406 ( 0.063735012) CSF = 2 0 2 2 2 2 2 0 0 0 0 0 0 0 0 0 0 0 0 0 0 0 0 0 0 0 0 0 0 0 0 0 0 0 0 0 0 0 0 0 0 0 0 0 0 0 0 0 0 0 0 0 0 0 0 0 0 0 0 0 

Resetting TVAR
   # of selected  CSFs                        ... 4328638
   # of generator CSFs                        ...    465
   # of NEW generator CSFs                    ...      2
   # of S+D CSFs generated                    ... 522401
   Selecting from the generated CSFs          ...    # of CSFs after Selection                  ... 4352474
   # of NEW selected CSFs                     ...  23836
   maximum energy change                ... 1.023e-04 Eh

                  **********************************
                  *  ICECI/CSF MACROITERATION   5  *
                  **********************************

   # of selected CSFs                    ... 4352474

                       ****Iteration    0****
  T(sigma)= 10629.256 sec T(BLAS)=    0.000 NAv(S)=792348.1 NMax(S)=226574
   Maximum residual norm  :     0.000505385905

                       ****Iteration    1****
  T(sigma)= 10126.116 sec T(BLAS)=    0.000 NAv(S)=792348.1 NMax(S)=226574
   Maximum residual norm  :     0.000009092212

                       ****Iteration    2****
  T(sigma)= 10594.414 sec T(BLAS)=    0.000 NAv(S)=792348.1 NMax(S)=226574
   Maximum residual norm  :     0.000001277717
WARNING: Failed to orthogonalize vector 1 in Davidson
         Increasing orthogonality tolerance to              ... 1.0e-15
         Please check your results carefully!

                       ****Iteration    3****
  T(sigma)=  9920.688 sec T(BLAS)=    0.000 NAv(S)=792348.1 NMax(S)=226574
   Maximum residual norm  :     0.000000219836

                       ****Iteration    4****
  T(sigma)= 10487.152 sec T(BLAS)=    0.000 NAv(S)=792348.1 NMax(S)=226574
   Maximum residual norm  :     0.000000035103

                       ****Iteration    5****
  T(sigma)= 10123.538 sec T(BLAS)=    0.000 NAv(S)=792348.1 NMax(S)=226574

         *** CONVERGENCE OF ENERGIES REACHED ***
STATE   0 MULT= 1: E=   -150.0899046107 Eh W=  0.1667 DE= 0.000 eV      0.0 cm**-1
      0.43421 (-0.658946268) CSF = 2 2 2 2 2 0 2 0 0 0 0 0 0 0 0 0 0 0 0 0 0 0 0 0 0 0 0 0 0 0 0 0 0 0 0 0 0 0 0 0 0 0 0 0 0 0 0 0 0 0 0 0 0 0 0 0 0 0 0 0 
      0.43379 ( 0.658629428) CSF = 2 2 2 2 2 2 0 0 0 0 0 0 0 0 0 0 0 0 0 0 0 0 0 0 0 0 0 0 0 0 0 0 0 0 0 0 0 0 0 0 0 0 0 0 0 0 0 0 0 0 0 0 0 0 0 0 0 0 0 0 
      0.01552 ( 0.124588891) CSF = 2 2 2 2 0 2 2 0 0 0 0 0 0 0 0 0 0 0 0 0 0 0 0 0 0 0 0 0 0 0 0 0 0 0 0 0 0 0 0 0 0 0 0 0 0 0 0 0 0 0 0 0 0 0 0 0 0 0 0 0 
      0.01551 (-0.124522716) CSF = 2 2 2 0 2 2 2 0 0 0 0 0 0 0 0 0 0 0 0 0 0 0 0 0 0 0 0 0 0 0 0 0 0 0 0 0 0 0 0 0 0 0 0 0 0 0 0 0 0 0 0 0 0 0 0 0 0 0 0 0 
      0.00251 ( 0.050067018) CSF = 2 2 1+2 1+1-2 0 0 0 0 0 0 0 1-0 0 0 0 0 0 0 0 0 0 0 0 0 0 0 0 0 0 0 0 0 0 0 0 0 0 0 0 0 0 0 0 0 0 0 0 0 0 0 0 0 0 0 0 0 
      0.00250 ( 0.050044849) CSF = 2 2 1+1+2 2 1-0 0 0 0 0 0 0 1-0 0 0 0 0 0 0 0 0 0 0 0 0 0 0 0 0 0 0 0 0 0 0 0 0 0 0 0 0 0 0 0 0 0 0 0 0 0 0 0 0 0 0 0 0 

STATE   1 MULT= 1: E=   -150.0891564057 Eh W=  0.1667 DE= 0.020 eV    164.2 cm**-1
      0.86823 ( 0.931788199) CSF = 2 2 2 2 2 1+1-0 0 0 0 0 0 0 0 0 0 0 0 0 0 0 0 0 0 0 0 0 0 0 0 0 0 0 0 0 0 0 0 0 0 0 0 0 0 0 0 0 0 0 0 0 0 0 0 0 0 0 0 0 
      0.03116 ( 0.176523915) CSF = 2 2 2 1+1-2 2 0 0 0 0 0 0 0 0 0 0 0 0 0 0 0 0 0 0 0 0 0 0 0 0 0 0 0 0 0 0 0 0 0 0 0 0 0 0 0 0 0 0 0 0 0 0 0 0 0 0 0 0 0 
      0.00260 (-0.050999505) CSF = 2 2 0 2 2 1+1-0 0 0 0 0 0 0 2 0 0 0 0 0 0 0 0 0 0 0 0 0 0 0 0 0 0 0 0 0 0 0 0 0 0 0 0 0 0 0 0 0 0 0 0 0 0 0 0 0 0 0 0 0 
      0.00251 ( 0.050086399) CSF = 2 2 1+2 1+2 1-0 0 0 0 0 0 0 1-0 0 0 0 0 0 0 0 0 0 0 0 0 0 0 0 0 0 0 0 0 0 0 0 0 0 0 0 0 0 0 0 0 0 0 0 0 0 0 0 0 0 0 0 0 
      0.00251 (-0.050081917) CSF = 2 2 1+1+2 1-2 0 0 0 0 0 0 0 1-0 0 0 0 0 0 0 0 0 0 0 0 0 0 0 0 0 0 0 0 0 0 0 0 0 0 0 0 0 0 0 0 0 0 0 0 0 0 0 0 0 0 0 0 0 

STATE   2 MULT= 1: E=   -150.0652116084 Eh W=  0.1667 DE= 0.672 eV   5419.5 cm**-1
      0.42406 (-0.651202253) CSF = 2 2 2 2 2 2 0 0 0 0 0 0 0 0 0 0 0 0 0 0 0 0 0 0 0 0 0 0 0 0 0 0 0 0 0 0 0 0 0 0 0 0 0 0 0 0 0 0 0 0 0 0 0 0 0 0 0 0 0 0 
      0.42365 (-0.650884329) CSF = 2 2 2 2 2 0 2 0 0 0 0 0 0 0 0 0 0 0 0 0 0 0 0 0 0 0 0 0 0 0 0 0 0 0 0 0 0 0 0 0 0 0 0 0 0 0 0 0 0 0 0 0 0 0 0 0 0 0 0 0 
      0.02328 ( 0.152570524) CSF = 2 2 2 0 2 2 2 0 0 0 0 0 0 0 0 0 0 0 0 0 0 0 0 0 0 0 0 0 0 0 0 0 0 0 0 0 0 0 0 0 0 0 0 0 0 0 0 0 0 0 0 0 0 0 0 0 0 0 0 0 
      0.02326 ( 0.152504155) CSF = 2 2 2 2 0 2 2 0 0 0 0 0 0 0 0 0 0 0 0 0 0 0 0 0 0 0 0 0 0 0 0 0 0 0 0 0 0 0 0 0 0 0 0 0 0 0 0 0 0 0 0 0 0 0 0 0 0 0 0 0 
      0.00406 ( 0.063730040) CSF = 2 0 2 2 2 2 2 0 0 0 0 0 0 0 0 0 0 0 0 0 0 0 0 0 0 0 0 0 0 0 0 0 0 0 0 0 0 0 0 0 0 0 0 0 0 0 0 0 0 0 0 0 0 0 0 0 0 0 0 0 

Resetting TVAR
   # of selected  CSFs                        ... 4352474
   # of generator CSFs                        ...    465
   # of NEW generator CSFs                    ...      0


FINAL CIPSI ENERGIES
  Final CIPSI Energy Root   0:   -150.089904611 EH
  Final CIPSI Energy Root   1:   -150.089156406 EH
  Final CIPSI Energy Root   2:   -150.065211608 EH
   CI-PROBLEM SOLVED (276766.6 sec)
   DENSITIES MADE

                 <<<<<<<<<<<<<<<<<<INITIAL CI STATE CHECK>>>>>>>>>>>>>>>>>>

BLOCK  0 MULT= 3 NROOTS= 1 
STATE   0 MULT= 3: E=   -150.1230090231 Eh W=  0.5000 DE= 0.000 eV      0.0 cm**-1
      0.88131 ( 0.938782729) CSF = 2 2 2 2 2 1+1+0 0 0 0 0 0 0 0 0 0 0 0 0 0 0 0 0 0 0 0 0 0 0 0 0 0 0 0 0 0 0 0 0 0 0 0 0 0 0 0 0 0 0 0 0 0 0 0 0 0 0 0 0 
      0.01301 (-0.114076878) CSF = 2 2 2 1+1+2 2 0 0 0 0 0 0 0 0 0 0 0 0 0 0 0 0 0 0 0 0 0 0 0 0 0 0 0 0 0 0 0 0 0 0 0 0 0 0 0 0 0 0 0 0 0 0 0 0 0 0 0 0 0 
      0.00281 ( 0.052984003) CSF = 2 2 1+1+2 1+2 0 0 0 0 0 0 0 1-0 0 0 0 0 0 0 0 0 0 0 0 0 0 0 0 0 0 0 0 0 0 0 0 0 0 0 0 0 0 0 0 0 0 0 0 0 0 0 0 0 0 0 0 0 
      0.00281 ( 0.052980883) CSF = 2 2 1+2 1+2 1+0 0 0 0 0 0 0 1-0 0 0 0 0 0 0 0 0 0 0 0 0 0 0 0 0 0 0 0 0 0 0 0 0 0 0 0 0 0 0 0 0 0 0 0 0 0 0 0 0 0 0 0 0 
      0.00257 (-0.050742556) CSF = 2 2 0 2 2 1+1+0 0 0 0 0 0 0 2 0 0 0 0 0 0 0 0 0 0 0 0 0 0 0 0 0 0 0 0 0 0 0 0 0 0 0 0 0 0 0 0 0 0 0 0 0 0 0 0 0 0 0 0 0 


BLOCK  1 MULT= 1 NROOTS= 3 
STATE   0 MULT= 1: E=   -150.0899046107 Eh W=  0.1667 DE= 0.000 eV      0.0 cm**-1
      0.43421 (-0.658946268) CSF = 2 2 2 2 2 0 2 0 0 0 0 0 0 0 0 0 0 0 0 0 0 0 0 0 0 0 0 0 0 0 0 0 0 0 0 0 0 0 0 0 0 0 0 0 0 0 0 0 0 0 0 0 0 0 0 0 0 0 0 0 
      0.43379 ( 0.658629428) CSF = 2 2 2 2 2 2 0 0 0 0 0 0 0 0 0 0 0 0 0 0 0 0 0 0 0 0 0 0 0 0 0 0 0 0 0 0 0 0 0 0 0 0 0 0 0 0 0 0 0 0 0 0 0 0 0 0 0 0 0 0 
      0.01552 ( 0.124588891) CSF = 2 2 2 2 0 2 2 0 0 0 0 0 0 0 0 0 0 0 0 0 0 0 0 0 0 0 0 0 0 0 0 0 0 0 0 0 0 0 0 0 0 0 0 0 0 0 0 0 0 0 0 0 0 0 0 0 0 0 0 0 
      0.01551 (-0.124522716) CSF = 2 2 2 0 2 2 2 0 0 0 0 0 0 0 0 0 0 0 0 0 0 0 0 0 0 0 0 0 0 0 0 0 0 0 0 0 0 0 0 0 0 0 0 0 0 0 0 0 0 0 0 0 0 0 0 0 0 0 0 0 
      0.00251 ( 0.050067018) CSF = 2 2 1+2 1+1-2 0 0 0 0 0 0 0 1-0 0 0 0 0 0 0 0 0 0 0 0 0 0 0 0 0 0 0 0 0 0 0 0 0 0 0 0 0 0 0 0 0 0 0 0 0 0 0 0 0 0 0 0 0 
      0.00250 ( 0.050044849) CSF = 2 2 1+1+2 2 1-0 0 0 0 0 0 0 1-0 0 0 0 0 0 0 0 0 0 0 0 0 0 0 0 0 0 0 0 0 0 0 0 0 0 0 0 0 0 0 0 0 0 0 0 0 0 0 0 0 0 0 0 0 

STATE   1 MULT= 1: E=   -150.0891564057 Eh W=  0.1667 DE= 0.020 eV    164.2 cm**-1
      0.86823 ( 0.931788199) CSF = 2 2 2 2 2 1+1-0 0 0 0 0 0 0 0 0 0 0 0 0 0 0 0 0 0 0 0 0 0 0 0 0 0 0 0 0 0 0 0 0 0 0 0 0 0 0 0 0 0 0 0 0 0 0 0 0 0 0 0 0 
      0.03116 ( 0.176523915) CSF = 2 2 2 1+1-2 2 0 0 0 0 0 0 0 0 0 0 0 0 0 0 0 0 0 0 0 0 0 0 0 0 0 0 0 0 0 0 0 0 0 0 0 0 0 0 0 0 0 0 0 0 0 0 0 0 0 0 0 0 0 
      0.00260 (-0.050999505) CSF = 2 2 0 2 2 1+1-0 0 0 0 0 0 0 2 0 0 0 0 0 0 0 0 0 0 0 0 0 0 0 0 0 0 0 0 0 0 0 0 0 0 0 0 0 0 0 0 0 0 0 0 0 0 0 0 0 0 0 0 0 
      0.00251 ( 0.050086399) CSF = 2 2 1+2 1+2 1-0 0 0 0 0 0 0 1-0 0 0 0 0 0 0 0 0 0 0 0 0 0 0 0 0 0 0 0 0 0 0 0 0 0 0 0 0 0 0 0 0 0 0 0 0 0 0 0 0 0 0 0 0 
      0.00251 (-0.050081917) CSF = 2 2 1+1+2 1-2 0 0 0 0 0 0 0 1-0 0 0 0 0 0 0 0 0 0 0 0 0 0 0 0 0 0 0 0 0 0 0 0 0 0 0 0 0 0 0 0 0 0 0 0 0 0 0 0 0 0 0 0 0 

STATE   2 MULT= 1: E=   -150.0652116084 Eh W=  0.1667 DE= 0.672 eV   5419.5 cm**-1
      0.42406 (-0.651202253) CSF = 2 2 2 2 2 2 0 0 0 0 0 0 0 0 0 0 0 0 0 0 0 0 0 0 0 0 0 0 0 0 0 0 0 0 0 0 0 0 0 0 0 0 0 0 0 0 0 0 0 0 0 0 0 0 0 0 0 0 0 0 
      0.42365 (-0.650884329) CSF = 2 2 2 2 2 0 2 0 0 0 0 0 0 0 0 0 0 0 0 0 0 0 0 0 0 0 0 0 0 0 0 0 0 0 0 0 0 0 0 0 0 0 0 0 0 0 0 0 0 0 0 0 0 0 0 0 0 0 0 0 
      0.02328 ( 0.152570524) CSF = 2 2 2 0 2 2 2 0 0 0 0 0 0 0 0 0 0 0 0 0 0 0 0 0 0 0 0 0 0 0 0 0 0 0 0 0 0 0 0 0 0 0 0 0 0 0 0 0 0 0 0 0 0 0 0 0 0 0 0 0 
      0.02326 ( 0.152504155) CSF = 2 2 2 2 0 2 2 0 0 0 0 0 0 0 0 0 0 0 0 0 0 0 0 0 0 0 0 0 0 0 0 0 0 0 0 0 0 0 0 0 0 0 0 0 0 0 0 0 0 0 0 0 0 0 0 0 0 0 0 0 
      0.00406 ( 0.063730040) CSF = 2 0 2 2 2 2 2 0 0 0 0 0 0 0 0 0 0 0 0 0 0 0 0 0 0 0 0 0 0 0 0 0 0 0 0 0 0 0 0 0 0 0 0 0 0 0 0 0 0 0 0 0 0 0 0 0 0 0 0 0 


                 <<<<<<<<<<<<<<<<<<INITIAL CI STATE CHECK>>>>>>>>>>>>>>>>>>

   E(CAS)=  -150.102216616 Eh DE=    0.000000e+00
   --- Energy gap subspaces: Ext-Act = 0.600   Act-Int = 19.066
   N(occ)=  1.97989 1.97198 1.94873 1.93378 1.93378 1.03047 1.03048 0.01595 0.00854 0.00946 0.00946 0.00298 0.00622 0.00622 0.03342 0.00355 0.00554 0.00552 0.00718 0.00718 0.00354 0.00354 0.00335 0.00232 0.00232 0.00285 0.00366 0.00365 0.00332 0.00258 0.00207 0.00207 0.00193 0.00045 0.00047 0.00047 0.00064 0.00064 0.00037 0.00037 0.00088 0.00032 0.00032 0.00034 0.00034 0.00084 0.00084 0.00069 0.00069 0.00065 0.00065 0.00058 0.00060 0.00060 0.00014 0.00014 0.00031 0.00011 0.00001 0.00000
   ||g|| =     4.162224e-02 Max(G)=   -2.352844e-02 Rot=3,1
--------------
CASSCF RESULTS
--------------

Final CASSCF energy       : -150.102216616 Eh   -4084.4890 eV

----------------
ORBITAL ENERGIES
----------------

  NO   OCC          E(Eh)            E(eV) 
   0   2.0000     -20.706335      -563.4480 
   1   2.0000     -20.705415      -563.4230 
   2   1.9799      -1.639478       -44.6125 
   3   1.9720      -1.085897       -29.5488 
   4   1.9487      -0.718661       -19.5558 
   5   1.9338      -0.691067       -18.8049 
   6   1.9338      -0.691071       -18.8050 
   7   1.0305      -0.214191        -5.8284 
   8   1.0305      -0.214176        -5.8280 
   9   0.0160       0.351979         9.5778 
  10   0.0085       0.476616        12.9694 
  11   0.0095       0.532851        14.4996 
  12   0.0095       0.532853        14.4997 
  13   0.0030       0.574081        15.6215 
  14   0.0062       0.643367        17.5069 
  15   0.0062       0.643372        17.5071 
  16   0.0334       0.664003        18.0684 
  17   0.0035       0.907978        24.7073 
  18   0.0055       1.470103        40.0035 
  19   0.0055       1.470108        40.0037 
  20   0.0072       1.563245        42.5380 
  21   0.0072       1.563245        42.5380 
  22   0.0035       1.903430        51.7950 
  23   0.0035       1.903433        51.7950 
  24   0.0033       2.110747        57.4364 
  25   0.0023       2.408987        65.5519 
  26   0.0023       2.408990        65.5519 
  27   0.0029       2.440074        66.3978 
  28   0.0037       2.806097        76.3578 
  29   0.0037       2.806104        76.3580 
  30   0.0033       2.871335        78.1330 
  31   0.0026       3.104183        84.4691 
  32   0.0021       3.148822        85.6838 
  33   0.0021       3.148831        85.6841 
  34   0.0019       3.295188        89.6666 
  35   0.0005       4.644546       126.3845 
  36   0.0005       4.991646       135.8296 
  37   0.0005       4.991646       135.8296 
  38   0.0006       5.041256       137.1795 
  39   0.0006       5.041255       137.1795 
  40   0.0004       5.338616       145.2711 
  41   0.0004       5.338616       145.2711 
  42   0.0009       5.436770       147.9420 
  43   0.0003       5.590207       152.1173 
  44   0.0003       5.590207       152.1173 
  45   0.0003       6.144783       167.2081 
  46   0.0003       6.144784       167.2081 
  47   0.0008       6.551800       178.2835 
  48   0.0008       6.551802       178.2836 
  49   0.0007       6.762071       184.0053 
  50   0.0007       6.762072       184.0053 
  51   0.0007       6.794953       184.9001 
  52   0.0006       6.794955       184.9001 
  53   0.0006       6.847015       186.3167 
  54   0.0006       6.906631       187.9390 
  55   0.0006       6.906631       187.9390 
  56   0.0001       7.672035       208.7667 
  57   0.0001       7.672038       208.7668 
  58   0.0003       7.950130       216.3340 
  59   0.0001       9.149083       248.9592 
  60   0.0000      44.516020      1211.3425 
  61   0.0000      45.054451      1225.9939 


---------------------------------------------
CAS-SCF STATES FOR BLOCK  0 MULT= 3 NROOTS= 1
---------------------------------------------

STATE   0 MULT= 3: E=   -150.1230090231 Eh W=  0.5000 DE= 0.000 eV      0.0 cm**-1
      0.88131 ( 0.938782729) CSF = 2 2 2 2 2 1+1+0 0 0 0 0 0 0 0 0 0 0 0 0 0 0 0 0 0 0 0 0 0 0 0 0 0 0 0 0 0 0 0 0 0 0 0 0 0 0 0 0 0 0 0 0 0 0 0 0 0 0 0 0 
      0.01301 (-0.114076878) CSF = 2 2 2 1+1+2 2 0 0 0 0 0 0 0 0 0 0 0 0 0 0 0 0 0 0 0 0 0 0 0 0 0 0 0 0 0 0 0 0 0 0 0 0 0 0 0 0 0 0 0 0 0 0 0 0 0 0 0 0 0 
      0.00281 ( 0.052984003) CSF = 2 2 1+1+2 1+2 0 0 0 0 0 0 0 1-0 0 0 0 0 0 0 0 0 0 0 0 0 0 0 0 0 0 0 0 0 0 0 0 0 0 0 0 0 0 0 0 0 0 0 0 0 0 0 0 0 0 0 0 0 
      0.00281 ( 0.052980883) CSF = 2 2 1+2 1+2 1+0 0 0 0 0 0 0 1-0 0 0 0 0 0 0 0 0 0 0 0 0 0 0 0 0 0 0 0 0 0 0 0 0 0 0 0 0 0 0 0 0 0 0 0 0 0 0 0 0 0 0 0 0 
      0.00257 (-0.050742556) CSF = 2 2 0 2 2 1+1+0 0 0 0 0 0 0 2 0 0 0 0 0 0 0 0 0 0 0 0 0 0 0 0 0 0 0 0 0 0 0 0 0 0 0 0 0 0 0 0 0 0 0 0 0 0 0 0 0 0 0 0 0 



---------------------------------------------
CAS-SCF STATES FOR BLOCK  1 MULT= 1 NROOTS= 3
---------------------------------------------

STATE   0 MULT= 1: E=   -150.0899046107 Eh W=  0.1667 DE= 0.000 eV      0.0 cm**-1
      0.43421 (-0.658946268) CSF = 2 2 2 2 2 0 2 0 0 0 0 0 0 0 0 0 0 0 0 0 0 0 0 0 0 0 0 0 0 0 0 0 0 0 0 0 0 0 0 0 0 0 0 0 0 0 0 0 0 0 0 0 0 0 0 0 0 0 0 0 
      0.43379 ( 0.658629428) CSF = 2 2 2 2 2 2 0 0 0 0 0 0 0 0 0 0 0 0 0 0 0 0 0 0 0 0 0 0 0 0 0 0 0 0 0 0 0 0 0 0 0 0 0 0 0 0 0 0 0 0 0 0 0 0 0 0 0 0 0 0 
      0.01552 ( 0.124588891) CSF = 2 2 2 2 0 2 2 0 0 0 0 0 0 0 0 0 0 0 0 0 0 0 0 0 0 0 0 0 0 0 0 0 0 0 0 0 0 0 0 0 0 0 0 0 0 0 0 0 0 0 0 0 0 0 0 0 0 0 0 0 
      0.01551 (-0.124522716) CSF = 2 2 2 0 2 2 2 0 0 0 0 0 0 0 0 0 0 0 0 0 0 0 0 0 0 0 0 0 0 0 0 0 0 0 0 0 0 0 0 0 0 0 0 0 0 0 0 0 0 0 0 0 0 0 0 0 0 0 0 0 
      0.00251 ( 0.050067018) CSF = 2 2 1+2 1+1-2 0 0 0 0 0 0 0 1-0 0 0 0 0 0 0 0 0 0 0 0 0 0 0 0 0 0 0 0 0 0 0 0 0 0 0 0 0 0 0 0 0 0 0 0 0 0 0 0 0 0 0 0 0 
      0.00250 ( 0.050044849) CSF = 2 2 1+1+2 2 1-0 0 0 0 0 0 0 1-0 0 0 0 0 0 0 0 0 0 0 0 0 0 0 0 0 0 0 0 0 0 0 0 0 0 0 0 0 0 0 0 0 0 0 0 0 0 0 0 0 0 0 0 0 

STATE   1 MULT= 1: E=   -150.0891564057 Eh W=  0.1667 DE= 0.020 eV    164.2 cm**-1
      0.86823 ( 0.931788199) CSF = 2 2 2 2 2 1+1-0 0 0 0 0 0 0 0 0 0 0 0 0 0 0 0 0 0 0 0 0 0 0 0 0 0 0 0 0 0 0 0 0 0 0 0 0 0 0 0 0 0 0 0 0 0 0 0 0 0 0 0 0 
      0.03116 ( 0.176523915) CSF = 2 2 2 1+1-2 2 0 0 0 0 0 0 0 0 0 0 0 0 0 0 0 0 0 0 0 0 0 0 0 0 0 0 0 0 0 0 0 0 0 0 0 0 0 0 0 0 0 0 0 0 0 0 0 0 0 0 0 0 0 
      0.00260 (-0.050999505) CSF = 2 2 0 2 2 1+1-0 0 0 0 0 0 0 2 0 0 0 0 0 0 0 0 0 0 0 0 0 0 0 0 0 0 0 0 0 0 0 0 0 0 0 0 0 0 0 0 0 0 0 0 0 0 0 0 0 0 0 0 0 
      0.00251 ( 0.050086399) CSF = 2 2 1+2 1+2 1-0 0 0 0 0 0 0 1-0 0 0 0 0 0 0 0 0 0 0 0 0 0 0 0 0 0 0 0 0 0 0 0 0 0 0 0 0 0 0 0 0 0 0 0 0 0 0 0 0 0 0 0 0 
      0.00251 (-0.050081917) CSF = 2 2 1+1+2 1-2 0 0 0 0 0 0 0 1-0 0 0 0 0 0 0 0 0 0 0 0 0 0 0 0 0 0 0 0 0 0 0 0 0 0 0 0 0 0 0 0 0 0 0 0 0 0 0 0 0 0 0 0 0 

STATE   2 MULT= 1: E=   -150.0652116084 Eh W=  0.1667 DE= 0.672 eV   5419.5 cm**-1
      0.42406 (-0.651202253) CSF = 2 2 2 2 2 2 0 0 0 0 0 0 0 0 0 0 0 0 0 0 0 0 0 0 0 0 0 0 0 0 0 0 0 0 0 0 0 0 0 0 0 0 0 0 0 0 0 0 0 0 0 0 0 0 0 0 0 0 0 0 
      0.42365 (-0.650884329) CSF = 2 2 2 2 2 0 2 0 0 0 0 0 0 0 0 0 0 0 0 0 0 0 0 0 0 0 0 0 0 0 0 0 0 0 0 0 0 0 0 0 0 0 0 0 0 0 0 0 0 0 0 0 0 0 0 0 0 0 0 0 
      0.02328 ( 0.152570524) CSF = 2 2 2 0 2 2 2 0 0 0 0 0 0 0 0 0 0 0 0 0 0 0 0 0 0 0 0 0 0 0 0 0 0 0 0 0 0 0 0 0 0 0 0 0 0 0 0 0 0 0 0 0 0 0 0 0 0 0 0 0 
      0.02326 ( 0.152504155) CSF = 2 2 2 2 0 2 2 0 0 0 0 0 0 0 0 0 0 0 0 0 0 0 0 0 0 0 0 0 0 0 0 0 0 0 0 0 0 0 0 0 0 0 0 0 0 0 0 0 0 0 0 0 0 0 0 0 0 0 0 0 
      0.00406 ( 0.063730040) CSF = 2 0 2 2 2 2 2 0 0 0 0 0 0 0 0 0 0 0 0 0 0 0 0 0 0 0 0 0 0 0 0 0 0 0 0 0 0 0 0 0 0 0 0 0 0 0 0 0 0 0 0 0 0 0 0 0 0 0 0 0 



-----------------------------
SA-CASSCF TRANSITION ENERGIES
------------------------------

LOWEST ROOT (ROOT 0 ,MULT 3) =   -150.123009023 Eh -4085.055 eV

STATE   ROOT MULT  DE/a.u.    DE/eV    DE/cm**-1
   1:    0    1   0.033104     0.901   7265.6
   2:    1    1   0.033853     0.921   7429.8
   3:    2    1   0.057797     1.573  12685.1


--------------
DENSITY MATRIX
--------------

                  0          1          2          3          4          5    
      0       1.979886   0.000000   0.010941   0.000000   0.000000   0.000000
      1       0.000000   1.971984   0.000000   0.000000   0.000000   0.000000
      2       0.010941   0.000000   1.948727   0.000000   0.000000   0.000000
      3       0.000000   0.000000   0.000000   1.933782   0.000005   0.000000
      4       0.000000   0.000000   0.000000   0.000005   1.933780   0.000000
      5       0.000000   0.000000   0.000000   0.000000   0.000000   1.030473
      6       0.000000   0.000000   0.000000   0.000000   0.000000  -0.000002
      7       0.000000  -0.007770   0.000000   0.000000   0.000000   0.000000
      8       0.009405   0.000000   0.010850   0.000000   0.000000   0.000000
      9       0.000000   0.000000   0.000000   0.004370  -0.003066   0.000000
     10       0.000000   0.000000   0.000000  -0.003057  -0.004366   0.000000
     11       0.002450   0.000000  -0.005049   0.000000   0.000000   0.000000
     12       0.000000   0.000000   0.000000   0.000000   0.000000   0.002212
     13       0.000000   0.000000   0.000000   0.000000   0.000000   0.000225
     14       0.000000   0.023873   0.000000   0.000000   0.000000   0.000000
     15       0.000000  -0.002015   0.000000   0.000000   0.000000   0.000000
     16       0.000062   0.000000   0.000017   0.000000   0.000000   0.000000
     17       0.000001   0.000000  -0.000000   0.000000   0.000000   0.000000
     18       0.000000   0.000000   0.000000   0.002776   0.004290   0.000000
     19       0.000000   0.000000   0.000000   0.004264  -0.002872   0.000000
     20       0.000000   0.000001   0.000000   0.000000   0.000000   0.000000
     21       0.000000   0.000001   0.000000   0.000000   0.000000   0.000000
     22      -0.000463   0.000000   0.002913   0.000000   0.000000   0.000000
     23       0.000000   0.000000   0.000000   0.000000   0.000000   0.002778
     24       0.000000   0.000000   0.000000   0.000000   0.000000  -0.000317
     25       0.000000  -0.002833   0.000000   0.000000   0.000000   0.000000
     26       0.000000   0.000000   0.000000  -0.010447   0.006461   0.000000
     27       0.000000   0.000000   0.000000   0.006335   0.010484   0.000000
     28      -0.000056   0.000000   0.001793   0.000000   0.000000   0.000000
     29       0.000000   0.002353   0.000000   0.000000   0.000000   0.000000
     30       0.000000   0.000000   0.000000   0.000000   0.000000   0.005894
     31       0.000000   0.000000   0.000000   0.000000   0.000000  -0.000203
     32       0.006350   0.000000  -0.015037   0.000000   0.000000   0.000000
     33       0.000000   0.000630   0.000000   0.000000   0.000000   0.000000
     34       0.000001   0.000000   0.000000   0.000000   0.000000   0.000000
     35      -0.000001   0.000000   0.000000   0.000000   0.000000   0.000000
     36       0.000000   0.000000   0.000000   0.000995  -0.000623   0.000000
     37       0.000000   0.000000   0.000000  -0.000619  -0.001000   0.000000
     38       0.000000   0.000000   0.000000   0.000001  -0.000002   0.000000
     39       0.000000   0.000000   0.000000  -0.000004  -0.000002   0.000000
     40       0.002850   0.000000  -0.004733   0.000000   0.000000   0.000000
     41       0.000000   0.000000   0.000000   0.000000   0.000000  -0.000000
     42       0.000000   0.000000   0.000000   0.000000   0.000000  -0.000002
     43       0.000000   0.000000   0.000000   0.000000   0.000000   0.000000
     44       0.000000   0.000000   0.000000   0.000000   0.000000   0.000000
     45      -0.000023   0.000000  -0.000005   0.000000   0.000000   0.000000
     46       0.000000   0.000000   0.000000   0.000000   0.000000   0.000000
     47       0.000000  -0.000022   0.000000   0.000000   0.000000   0.000000
     48       0.000000  -0.000000   0.000000   0.000000   0.000000   0.000000
     49       0.000000   0.000000   0.000000   0.000000   0.000000  -0.000331
     50       0.000000   0.000000   0.000000   0.000000   0.000000   0.000042
     51       0.000000  -0.000558   0.000000   0.000000   0.000000   0.000000
     52       0.000000   0.000000   0.000000  -0.000193   0.000118   0.000000
     53       0.000000   0.000000   0.000000  -0.000116  -0.000195   0.000000
     54       0.000000   0.000000   0.000000   0.000000   0.000000  -0.000130
     55       0.000000   0.000000   0.000000   0.000000   0.000000   0.000009
     56      -0.001231   0.000000   0.001209   0.000000   0.000000   0.000000
     57       0.000000   0.000182   0.000000   0.000000   0.000000   0.000000
     58       0.000212   0.000000   0.000009   0.000000   0.000000   0.000000
     59       0.000000  -0.000189   0.000000   0.000000   0.000000   0.000000
                  6          7          8          9         10         11    
      0       0.000000   0.000000   0.009405   0.000000   0.000000   0.002450
      1       0.000000  -0.007770   0.000000   0.000000   0.000000   0.000000
      2       0.000000   0.000000   0.010850   0.000000   0.000000  -0.005049
      3       0.000000   0.000000   0.000000   0.004370  -0.003057   0.000000
      4       0.000000   0.000000   0.000000  -0.003066  -0.004366   0.000000
      5      -0.000002   0.000000   0.000000   0.000000   0.000000   0.000000
      6       1.030475   0.000000   0.000000   0.000000   0.000000   0.000000
      7       0.000000   0.015951   0.000000   0.000000   0.000000   0.000000
      8       0.000000   0.000000   0.008538   0.000000   0.000000   0.000860
      9       0.000000   0.000000   0.000000   0.009463  -0.000000   0.000000
     10       0.000000   0.000000   0.000000  -0.000000   0.009461   0.000000
     11       0.000000   0.000000   0.000860   0.000000   0.000000   0.002978
     12       0.000237   0.000000   0.000000   0.000000   0.000000   0.000000
     13      -0.002186   0.000000   0.000000   0.000000   0.000000   0.000000
     14       0.000000  -0.018761   0.000000   0.000000   0.000000   0.000000
     15       0.000000   0.006153   0.000000   0.000000   0.000000   0.000000
     16       0.000000   0.000000   0.000000   0.000000   0.000000  -0.000000
     17       0.000000   0.000000  -0.000000   0.000000   0.000000   0.000000
     18       0.000000   0.000000   0.000000  -0.000053  -0.002309   0.000000
     19       0.000000   0.000000   0.000000   0.002310  -0.000050   0.000000
     20       0.000000   0.000000   0.000000   0.000000   0.000000   0.000000
     21       0.000000   0.000000   0.000000   0.000000   0.000000   0.000000
     22       0.000000   0.000000  -0.000321   0.000000   0.000000   0.002347
     23      -0.000312   0.000000   0.000000   0.000000   0.000000   0.000000
     24      -0.002770   0.000000   0.000000   0.000000   0.000000   0.000000
     25       0.000000   0.002098   0.000000   0.000000   0.000000   0.000000
     26       0.000000   0.000000   0.000000  -0.004891   0.000103   0.000000
     27       0.000000   0.000000   0.000000  -0.000114  -0.004881   0.000000
     28       0.000000   0.000000  -0.004547   0.000000   0.000000  -0.000787
     29       0.000000  -0.001230   0.000000   0.000000   0.000000   0.000000
     30      -0.000187   0.000000   0.000000   0.000000   0.000000   0.000000
     31      -0.005886   0.000000   0.000000   0.000000   0.000000   0.000000
     32       0.000000   0.000000  -0.000276   0.000000   0.000000   0.000836
     33       0.000000  -0.001070   0.000000   0.000000   0.000000   0.000000
     34       0.000000   0.000000   0.000000   0.000000   0.000000   0.000000
     35       0.000000   0.000000   0.000000   0.000000   0.000000   0.000000
     36       0.000000   0.000000   0.000000   0.000132  -0.000005   0.000000
     37       0.000000   0.000000   0.000000   0.000005   0.000132   0.000000
     38       0.000000   0.000000   0.000000  -0.000001   0.000003   0.000000
     39       0.000000   0.000000   0.000000   0.000003   0.000001   0.000000
     40       0.000000   0.000000  -0.000053   0.000000   0.000000  -0.000560
     41       0.000002   0.000000   0.000000   0.000000   0.000000   0.000000
     42      -0.000001   0.000000   0.000000   0.000000   0.000000   0.000000
     43       0.000000  -0.000000   0.000000   0.000000   0.000000   0.000000
     44       0.000000  -0.000000   0.000000   0.000000   0.000000   0.000000
     45       0.000000   0.000000   0.000000   0.000000   0.000000   0.000000
     46       0.000000   0.000000  -0.000000   0.000000   0.000000   0.000000
     47       0.000000   0.000000   0.000000   0.000000   0.000000   0.000000
     48       0.000000   0.000000   0.000000   0.000000   0.000000   0.000000
     49       0.000041   0.000000   0.000000   0.000000   0.000000   0.000000
     50       0.000329   0.000000   0.000000   0.000000   0.000000   0.000000
     51       0.000000  -0.000657   0.000000   0.000000   0.000000   0.000000
     52       0.000000   0.000000   0.000000  -0.000149   0.000006   0.000000
     53       0.000000   0.000000   0.000000   0.000006   0.000149   0.000000
     54       0.000009   0.000000   0.000000   0.000000   0.000000   0.000000
     55       0.000130   0.000000   0.000000   0.000000   0.000000   0.000000
     56       0.000000   0.000000   0.000173   0.000000   0.000000  -0.000382
     57       0.000000  -0.000161   0.000000   0.000000   0.000000   0.000000
     58       0.000000   0.000000  -0.000078   0.000000   0.000000  -0.000007
     59       0.000000   0.000047   0.000000   0.000000   0.000000   0.000000
[...]
Memory available                       ...  12000.0 MB
Memory needed                          ...      0.1 MB
Calculating two index integrals        ... done (    0.007 sec)
Calculating the V^(-1) matrix          ...
The smallest 3 eigenvalues: 3.276e-04 6.661e-04 7.876e-04
 done (    0.006 sec)

Starting direct RI integral transformation:
  Aux angular momentum 0               ... done (    0.014 sec)
  Aux angular momentum 1               ... done (    0.004 sec)
  Aux angular momentum 2               ... done (    0.002 sec)
  Aux angular momentum 3               ... done (    0.001 sec)
  Aux angular momentum 4               ... done (    0.001 sec)
(i,j) Transformation completed in     0.154 sec

Number of MO pairs per batch           ... 77
Max. Number of batches needed          ... 1
Third index is transformed in     0.185 sec

Two-center spin-spin integrals are calculated in 369699.763 sec

Three index spin-spin MO-integrals done in     0.296 sec

Time needed for calculating the SSC RMEs: 8522.860592 seconds

***********************************************************
* DOING EVERYTHING A SECOND TIME: THIS TIME INCLUDING SSC *
***********************************************************

----------------------------------
QDPT WITH CASSCF DIAGONAL ENERGIES
----------------------------------

*************************************
Doing QDPT with SOC AND SSC!
*************************************

Lowest eigenvalue of the SOC matrix:    -150.12302457 Eh
Energy stabilization:    -3.41158 cm-1
Eigenvalues:     cm-1         eV      Boltzmann populations at T =  300.000 K
   0:            0.00        0.0000       3.38e-01
   1:            3.92        0.0005       3.31e-01
   2:            3.93        0.0005       3.31e-01
   3:         7268.99        0.9012       2.44e-16
   4:         7433.20        0.9216       1.11e-16
   5:        12690.86        1.5735       1.25e-27

The threshold for printing is 0.0100
Eigenvectors:
                         Weight      Real          Image    : Block Root    Spin   Ms
 STATE   0:       0.0000
                         0.999812    -0.000000     0.999906 :     0    0    1    0

 STATE   1:       3.9242
                         0.500001     0.481546     0.517798 :     0    0    1    1
                         0.499999     0.706493    -0.029431 :     0    0    1   -1

 STATE   2:       3.9253
                         0.499999     0.282642    -0.648161 :     0    0    1    1
                         0.500001     0.308894     0.636071 :     0    0    1   -1

 STATE   3:    7268.9903
                         1.000000     1.000000    -0.000000 :     1    0    0    0

 STATE   4:    7433.2023
                         1.000000    -1.000000     0.000000 :     1    1    0    0

 STATE   5:   12690.8631
                         0.999812     0.999906     0.000000 :     1    2    0    0


--------------------------------------------
           ZERO-FIELD SPLITTING
(2ND ORDER SPIN-ORBIT COUPLING CONTRIBUTION)
--------------------------------------------

Second order D-tensor: component '0'
    0.000000     0.000000     0.000000 
    0.000000     0.000000     0.000000 
    0.000000     0.000000     0.000000 

Second order D-tensor: component '-'
    0.000000     0.000000    -0.000000 
    0.000000     0.000000    -0.000000 
   -0.000000    -0.000000     2.385881 

Second order D-tensor: component '+'
    0.000000     0.000000     0.000000 
    0.000000     0.000000     0.000000 
    0.000000     0.000000     0.000000 

Raw matrix (cm-1):
    0.000000     0.000000    -0.000000 
    0.000000     0.000000    -0.000000 
   -0.000000    -0.000000     2.385881 

Eigenvalues (cm-1):
    0.000000     0.000000     2.385881 

Eigenvalues (traceless) (cm-1):
   -0.795294    -0.795294     1.590587 

Eigenvectors:
    0.961251    -0.275675    -0.000000 
   -0.275675    -0.961251    -0.000000 
    0.000000    -0.000000     1.000000 

Euler angles w.r.t. molecular frame (degrees):
   -163.9978       0.0000       0.0000

D   =    2.385881  cm-1
E/D =    0.000000

Individual contributions to D-tensor:
Block  Mult  Root          D          E
    0     3     0      0.000      0.000
    1     1     0      0.000      0.000
    1     1     1      0.000     -0.000
    1     1     2      2.386     -0.000
Norm of projected state 0 of the effective Hamiltonian: 0.999812
Norm of projected state 1 of the effective Hamiltonian: 1.000000
Norm of projected state 2 of the effective Hamiltonian: 1.000000
WARNING: If the projections have norms significantly smaller than 1, the effective Hamiltonian might not be very meaningful!

--------------------------------------------------------
                  ZERO-FIELD SPLITTING
EFFECTIVE HAMILTONIAN SOC and SSC CONTRIBUTION
--------------------------------------------------------

Effective Hamiltonian from projected relativistic states and relativistic energies:

Real part:  
                  0          1          2    
      0       3.924756  -0.000000  -0.000362
      1      -0.000000   0.000000   0.000000
      2      -0.000362   0.000000   3.924756

Image part: 
                  0          1          2    
      0      -0.000000   0.000000  -0.000424
      1      -0.000000   0.000000  -0.000000
      2       0.000424   0.000000   0.000000
Raw matrix (cm-1):
   -0.000362     0.000424    -0.000000 
    0.000424     0.000362    -0.000000 
   -0.000000    -0.000000     3.924756 

Eigenvalues (cm-1):
    0.000558    -0.000558     3.924756 

Eigenvalues (traceless) (cm-1):
   -1.307694    -1.308810     2.616504 

Eigenvectors:
   -0.418366     0.908278     0.000000 
   -0.908278    -0.418366     0.000000 
   -0.000000     0.000000    -1.000000 

Euler angles w.r.t. molecular frame (degrees):
    -65.2685       0.0000       0.0000

D   =    3.924756  cm-1
E/D =    0.000142

Individual contributions to D-tensor:
Block  Mult  Root          D          E
    1     1     0      0.000     -0.000
    1     1     1      0.000      0.000
    1     1     2      2.385      0.000

  *** Storing geometry in DTensor axis frame as mol.CAS_DTensor_HEFF_rotated.xyz  ***

--------------------------------
SOC CORRECTED EXCITATION SPECTRA
--------------------------------

Dim(SO)                  = 6
Number of initial states = -1
Center of mass           = (  0.0000,  0.0000,  1.1393)
Nuclear contribution to the dipole moment =     0.000000,    0.000000,    0.000000 au

Calculating the dipole integrals          ... done

------------------------------------------------------------------------------------------
                    SOC CORRECTED ABSORPTION SPECTRUM
------------------------------------------------------------------------------------------
  States   Energy   Wavelength   fosc          T2       |TX|       |TY|      |TZ| 
           (cm-1)     (nm)                   (D**2)      (D)        (D)       (D) 
------------------------------------------------------------------------------------------
 0  1       3.9   2548291.3   0.000000000   0.00000   0.00000   0.00000   0.00000
 0  2       3.9   2547567.2   0.000000000   0.00000   0.00000   0.00000   0.00000
 0  3    7269.0   1375.7   0.000000000   0.00000   0.00000   0.00000   0.00000
 0  4    7433.2   1345.3   0.000000000   0.00000   0.00000   0.00000   0.00000
 0  5   12690.9    788.0   0.000000000   0.00000   0.00000   0.00000   0.00000
 1  2       0.0   8964881005.5   0.000000000   0.00000   0.00000   0.00000   0.00000
 1  3    7265.1   1376.4   0.000000000   0.00000   0.00000   0.00000   0.00000
 1  4    7429.3   1346.0   0.000000000   0.00000   0.00000   0.00000   0.00000
 1  5   12686.9    788.2   0.000000000   0.00000   0.00000   0.00000   0.00000
 2  3    7265.1   1376.5   0.000000000   0.00000   0.00000   0.00000   0.00000
 2  4    7429.3   1346.0   0.000000000   0.00000   0.00000   0.00000   0.00000
 2  5   12686.9    788.2   0.000000000   0.00000   0.00000   0.00000   0.00000

------------------------------------------------------------------------------
                           SOC CORRECTED DIPOLE MOMENTS
------------------------------------------------------------------------------
      TX        TY        TZ           |T|
   (Debye)   (Debye)   (Debye)      (Debye)
------------------------------------------------------------------------------
  -0.00000   0.00000  -0.00000      0.00000

--------------
CASSCF TIMINGS
--------------

Total time                       ...   378453.7 sec
Sum of individual times          ...   387479.6 sec (102.4%)

Calculation of AO operators
   F(Core) operator              ...        0.1 sec (  0.0%)
   G(Act) operator               ...        0.1 sec (  0.0%)
Calculation of MO transformed quantities
   J(MO) operators               ...        0.5 sec (  0.0%)
   AO->MO one electron integrals ...        0.0 sec (  0.0%)
Configuration interaction steps
   CI-setup phase                ...        0.0 sec (  0.0%)
   CI-solution phase             ...   345461.4 sec ( 91.3%)
   Generation of densities       ...    15728.4 sec (  4.2%)
Orbital improvement steps
   Orbital gradient              ...       14.2 sec (  0.0%)
CPCM steps
   Total CPCM time               ...        0.0 sec (  0.0%)
Properties                       ...    17232.4 sec (  4.6%)
   SOC integral calculation      ...        0.2 sec (  0.0%)
   SSC RMEs (incl. integrals)    ...     8522.9 sec (  2.3%)
   SOC RMEs                      ...      519.5 sec (  0.1%)

Maximum memory used throughout the entire CASSCF-calculation: 11091.2 MB


           ************************************************************
           *        Program running with 24 parallel MPI-processes    *
           *              working on a common directory               *
           ************************************************************

------------------------------------------------------------------------------
                         ORCA PROPERTY INTEGRAL CALCULATIONS
------------------------------------------------------------------------------

GBWName                                   ... mol.gbw
Number of atoms                           ...      2
Number of basis functions                 ...     62
Max core memory                           ...  12000 MB

Dipole integrals                          ... YES
Quadrupole integrals                      ...  NO
Linear Momentum integrals                 ...  NO
Angular Momentum integrals                ...  NO
Higher Moments length integrals           ...  NO
Higher Moments velocity integrals         ...  NO
Kinetic energy integrals                  ...  NO
GIAO Right Hand Sides                     ...  NO
SOC integrals                             ...  NO
EPR diamagnetic integrals (GIAO)          ...  NO
EPR gauge integrals                       ...  NO
Field gradient integrals                  ...  NO (   0 nuclei)
Spin-dipole/Fermi contact integrals       ...  NO (   0 nuclei)
Nucleus-orbit integrals                   ...  NO (   0 nuclei)
Geometric perturbations                   ...  NO (   2 nuclei)

Calculating integrals                     ... Electric Dipole (Length)     done (  0.0 sec)

Property integrals calculated in   0.0 sec

Maximum memory used throughout the entire PROPINT-calculation: 7.0 MB

-------------------------   --------------------
FINAL SINGLE POINT ENERGY      -150.102216615710
-------------------------   --------------------


                            ***************************************
                            *     ORCA property calculations      *
                            ***************************************

                                    ---------------------
                                    Active property flags
                                    ---------------------
   (+) Dipole Moment


------------------------------------------------------------------------------
                       ORCA ELECTRIC PROPERTIES CALCULATION
------------------------------------------------------------------------------

Dipole Moment Calculation                       ... ON
Quadrupole Moment Calculation                   ... OFF
Polarizability Calculation                      ... OFF
Atomic Dipole Moment Calculation                ... OFF
Atomic Quadrupole Moment Calculation            ... OFF
Atomic Polarizability Calculation               ... OFF
GBWName                                         ... mol.gbw
Electron density                                ... mol.scfp

The origin for moment calculation is the CENTER OF MASS  = ( 0.000000,  0.000000  1.139316)

-------------
DIPOLE MOMENT
-------------
                                X             Y             Z
Electronic contribution:     -0.00000      -0.00000      -0.00000
Nuclear contribution   :      0.00000       0.00000       0.00000
                        -----------------------------------------
Total Dipole Moment    :     -0.00000      -0.00000      -0.00000
                        -----------------------------------------
Magnitude (a.u.)       :      0.00000
Magnitude (Debye)      :      0.00000



--------------------
Rotational spectrum 
--------------------
 
Rotational constants in cm-1:     0.000000     1.449384     1.449384 
Rotational constants in MHz :     0.000000 43451.442843 43451.442843 

 Dipole components along the rotational axes: 
x,y,z [a.u.] :    -0.000000    -0.000000    -0.000000 
x,y,z [Debye]:    -0.000000    -0.000000    -0.000000 

 

                           *** CIPSI DENSITY ***

------------------------------------------------------------------------------
                       ORCA ELECTRIC PROPERTIES CALCULATION
------------------------------------------------------------------------------

Dipole Moment Calculation                       ... ON
Quadrupole Moment Calculation                   ... OFF
Polarizability Calculation                      ... OFF
Atomic Dipole Moment Calculation                ... OFF
Atomic Quadrupole Moment Calculation            ... OFF
Atomic Polarizability Calculation               ... OFF
GBWName                                         ... mol.gbw
Electron density                                ... mol.cipsip

The origin for moment calculation is the CENTER OF MASS  = ( 0.000000,  0.000000  1.139316)

-------------
DIPOLE MOMENT
-------------
                                X             Y             Z
Electronic contribution:     -0.00000      -0.00000      -0.00000
Nuclear contribution   :      0.00000       0.00000       0.00000
                        -----------------------------------------
Total Dipole Moment    :     -0.00000      -0.00000      -0.00000
                        -----------------------------------------
Magnitude (a.u.)       :      0.00000
Magnitude (Debye)      :      0.00000



--------------------
Rotational spectrum 
--------------------
 
Rotational constants in cm-1:     0.000000     1.449384     1.449384 
Rotational constants in MHz :     0.000000 43451.442843 43451.442843 

 Dipole components along the rotational axes: 
x,y,z [a.u.] :    -0.000000    -0.000000    -0.000000 
x,y,z [Debye]:    -0.000000    -0.000000    -0.000000 

 

--------------------------------
SUGGESTED CITATIONS FOR THIS RUN
--------------------------------

Below you find a list of papers that are relevant to this ORCA run
We neither can nor want to force you to cite these paper, but we appreciate if you do
You receive ORCA, which is the product of a lot of hard work by many enthusiastic individuals, for free
The only thing we kindly ask in return is that you cite our papers,
We deeply appreciate it, if you show your appreciation for ORCA by not just citing the generic ORCA reference.

Please note that relegating all ORCA citations to the supporting information does *not* help us.
SI sections are not indexed - citations you put there will not count into any citation statistics
But we need these citations in order to attract the funding ressources that allow us to do what we are doing

Therefore, if you are a happy ORCA users, please consider citing a few of the papers listed below in the main body of your paper

In addition to the list printed below, the program has created the file mol.bibtex that contains the list in bibtex format
You can import this file easily into all common literature databanks and citation aid programs


List of essential papers. We consider these as the minimum necessary citations

  1. Neese,F.
     Software update: the ORCA program system, version 5.0
     WIRES Comput. Molec. Sci., 2022 12(1)e1606
     doi.org/10.1002/wcms.1606

List of papers to cite with high priority. The work reported in these papers was absolutely
necessary for this run to complete.
Our perspective: the developers of density functionals and basis sets usually get cited in chemistry papers
Good! But without the algorithms to do something with them, the functionals or basis sets would not do anything.
Hence, in our opinion, the algorithm design and method developments papers are equally worthy of getting cited

  1. Kollmar,C.; Sivalingam,K.; Helmich-Paris,B.; Angeli,C.; Neese,F.
     A perturbation-based super-CI approach for the orbital optimization of a CASSCF wave function
     J. Comput. Chem., 2019 40 1463-1470
     doi.org/10.1002/jcc.25801
  2. Neese,F.
     The SHARK Integral Generation and Digestion System
     J. Comp. Chem., 2022  1-16
     doi.org/10.1002/jcc.26942

List of suggested additional citations. These are papers that are important in the 'surrounding' of 
of this run, or papers that preceded the highly important papers. If you like your results we are grateful for a citation.

  1. Neese,F.
     The ORCA program system
     WIRES Comput. Molec. Sci., 2012 2(1)73-78
     doi.org/10.1002/wcms.81
  2. Neese,F.
     Software update: the ORCA program system, version 4.0
     WIRES Comput. Molec. Sci., 2018 8(1)1-6
     doi.org/10.1002/wcms.1327
  3. Neese,F.; Wennmohs,F.; Becker,U.; Riplinger,C.
     The ORCA quantum chemistry program package
     J. Chem. Phys., 2020 152 Art. No. L224108
     doi.org/10.1063/5.0004608

Timings for individual modules:

Sum of individual times         ...   378471.453 sec (=6307.858 min)
GTO integral calculation        ...        0.751 sec (=   0.013 min)   0.0 %
SCF iterations                  ...        0.413 sec (=   0.007 min)   0.0 %
CASSCF iterations               ...   378469.378 sec (=6307.823 min) 100.0 %
Property integrals              ...        0.911 sec (=   0.015 min)   0.0 %
                             ****ORCA TERMINATED NORMALLY****
TOTAL RUN TIME: 4 days 9 hours 7 minutes 52 seconds 73 msec
'cas_2_2.gbw' -> '/csnfs/users/llang/calculations/ICE_SOC_SSC/diatomics/O2/def2-TZVP/CAS_12_60/cas_2_2.gbw'
'mol.CAS_DTensor_HEFF_rotated.xyz' -> '/csnfs/users/llang/calculations/ICE_SOC_SSC/diatomics/O2/def2-TZVP/CAS_12_60/mol.CAS_DTensor_HEFF_rotated.xyz'
'mol.bibtex' -> '/csnfs/users/llang/calculations/ICE_SOC_SSC/diatomics/O2/def2-TZVP/CAS_12_60/mol.bibtex'
'mol.densities' -> '/csnfs/users/llang/calculations/ICE_SOC_SSC/diatomics/O2/def2-TZVP/CAS_12_60/mol.densities'
'mol.err' -> '/csnfs/users/llang/calculations/ICE_SOC_SSC/diatomics/O2/def2-TZVP/CAS_12_60/mol.err'
'mol.gbw' -> '/csnfs/users/llang/calculations/ICE_SOC_SSC/diatomics/O2/def2-TZVP/CAS_12_60/mol.gbw'
'mol.job' -> '/csnfs/users/llang/calculations/ICE_SOC_SSC/diatomics/O2/def2-TZVP/CAS_12_60/mol.job'
'mol.mpi24.out_killed' -> '/csnfs/users/llang/calculations/ICE_SOC_SSC/diatomics/O2/def2-TZVP/CAS_12_60/mol.mpi24.out_killed'
'mol.mpi24.out_outofmemory' -> '/csnfs/users/llang/calculations/ICE_SOC_SSC/diatomics/O2/def2-TZVP/CAS_12_60/mol.mpi24.out_outofmemory'
'mol_property.txt' -> '/csnfs/users/llang/calculations/ICE_SOC_SSC/diatomics/O2/def2-TZVP/CAS_12_60/mol_property.txt'
cp: cannot stat 'mol.asa.inp': No such file or directory
cp: missing destination file operand after '/csnfs/users/llang/calculations/ICE_SOC_SSC/diatomics/O2/def2-TZVP/CAS_12_60/'
Try 'cp --help' for more information.
