! Job execution by suborca V 9.37 !
Job started from head1.mpi-muelheim.mpg.de, running /hsnfs/software/orca/orca_current_directory/orca_current_20230610/orca on xe30th8.mpi-muelheim.mpg.de in /usr/scratch/llang/mol__274823 (/bin/tcsh)
Job execution start: Sat Jun 10 13:31:42 CEST 2023
Shared library path: /hsnfs/software/openmpi-4.1.0/lib:/hsnfs/software/orca/orca_current_directory/orca_current_20230610:/hsnfs/software/themis/llvm-14.0.1/lib:/hsnfs/software/orca/orca_current:/hsnfs/software/orca/orca_stable:/usr/users/openmpi-2.0.4/lib:/opt/intel/lib/intel64:/opt/intel/mkl/lib/intel64
SLURM Job ID is: 274823
SLURM_JOB_NODELIST: xe30th8
Maxcore enforced by SLURM: 3000 MB
Expanded nodelist (1 nodes):
xe30th8

                                 *****************
                                 * O   R   C   A *
                                 *****************

                                            #,                                       
                                            ###                                      
                                            ####                                     
                                            #####                                    
                                            ######                                   
                                           ########,                                 
                                     ,,################,,,,,                         
                               ,,#################################,,                 
                          ,,##########################################,,             
                       ,#########################################, ''#####,          
                    ,#############################################,,   '####,        
                  ,##################################################,,,,####,       
                ,###########''''           ''''###############################       
              ,#####''   ,,,,##########,,,,          '''####'''          '####       
            ,##' ,,,,###########################,,,                        '##       
           ' ,,###''''                  '''############,,,                           
         ,,##''                                '''############,,,,        ,,,,,,###''
      ,#''                                            '''#######################'''  
     '                                                          ''''####''''         
             ,#######,   #######,   ,#######,      ##                                
            ,#'     '#,  ##    ##  ,#'     '#,    #''#        ,####,   ,####,        
            ##       ##  ##   ,#'  ##            #'  '#       #'       #'  '#        
            ##       ##  #######   ##           ,######,      #####,   #    #        
            '#,     ,#'  ##    ##  '#,     ,#' ,#      #,     #,   #   #,  ,#        
             '#######'   ##     ##  '#######'  #'      '#     '####' # '####'.alpha  



                  #######################################################
                  #                        -***-                        #
                  #          Department of theory and spectroscopy      #
                  #    Directorship and core code : Frank Neese         #
                  #        Max Planck Institute fuer Kohlenforschung    #
                  #                Kaiser Wilhelm Platz 1               #
                  #                 D-45470 Muelheim/Ruhr               #
                  #                      Germany                        #
                  #                                                     #
                  #                  All rights reserved                #
                  #                        -***-                        #
                  #######################################################


                         Program Version 5.0  -  CURRENT   -
                                (GIT: $a76f960b3$)
                ($2023-06-09 17:20:03 +0200 $)

                  !                     WARNING:                         !
                  !         This is a DEVELOPMENT version                !

                         (BUILD: $Sa 10. Jun 00:07:52 CEST 2023$)


 With contributions from (in alphabetic order):
   Daniel Aravena         : Magnetic Suceptibility
   Michael Atanasov       : Ab Initio Ligand Field Theory (pilot matlab implementation)
   Alexander A. Auer      : GIAO ZORA, VPT2 properties, NMR spectrum
   Ute Becker             : Parallelization
   Giovanni Bistoni       : ED, misc. LED, open-shell LED, HFLD
   Martin Brehm           : Molecular dynamics
   Dmytro Bykov           : SCF Hessian
   Vijay G. Chilkuri      : MRCI spin determinant printing, contributions to CSF-ICE
   Dipayan Datta          : RHF DLPNO-CCSD density
   Achintya Kumar Dutta   : EOM-CC, STEOM-CC
   Dmitry Ganyushin       : Spin-Orbit,Spin-Spin,Magnetic field MRCI
   Miquel Garcia          : C-PCM and meta-GGA Hessian, CCSD/C-PCM, Gaussian charge scheme
   Yang Guo               : DLPNO-NEVPT2, F12-NEVPT2, CIM, IAO-localization
   Andreas Hansen         : Spin unrestricted coupled pair/coupled cluster methods
   Benjamin Helmich-Paris : MC-RPA, TRAH-(SCF,CASSCF), AVAS, COSX integrals, SCF dyn. polar.
   Lee Huntington         : MR-EOM, pCC
   Robert Izsak           : Overlap fitted RIJCOSX, COSX-SCS-MP3, EOM
   Marcus Kettner         : VPT2
   Christian Kollmar      : KDIIS, OOCD, Brueckner-CCSD(T), CCSD density, CASPT2, CASPT2-K, improved NEVPT2
   Simone Kossmann        : Meta GGA functionals, TD-DFT gradient, OOMP2, MP2 Hessian
   Martin Krupicka        : Initial AUTO-CI
   Lucas Lang             : DCDCAS
   Marvin Lechner         : AUTO-CI (C++ implementation), FIC-MRCC
   Dagmar Lenk            : GEPOL surface, SMD
   Dimitrios Liakos       : Extrapolation schemes; Compound Job, initial MDCI parallelization
   Dimitrios Manganas     : Further ROCIS development; embedding schemes
   Dimitrios Pantazis     : SARC Basis sets
   Anastasios Papadopoulos: AUTO-CI, single reference methods and gradients
   Taras Petrenko         : DFT Hessian,TD-DFT gradient, ASA, ECA, R-Raman, ABS, FL, XAS/XES, NRVS
   Peter Pinski           : DLPNO-MP2, DLPNO-MP2 Gradient
   Christoph Reimann      : Effective Core Potentials
   Marius Retegan         : Local ZFS, SOC
   Christoph Riplinger    : Optimizer, TS searches, QM/MM, DLPNO-CCSD(T), (RO)-DLPNO pert. Triples
   Tobias Risthaus        : Range-separated hybrids, TD-DFT gradient, RPA, STAB
   Michael Roemelt        : Original ROCIS implementation
   Masaaki Saitow         : Open-shell DLPNO-CCSD energy and density
   Barbara Sandhoefer     : DKH picture change effects
   Avijit Sen             : IP-ROCIS
   Kantharuban Sivalingam : CASSCF convergence, NEVPT2, FIC-MRCI
   Bernardo de Souza      : ESD, SOC TD-DFT
   Georgi Stoychev        : AutoAux, RI-MP2 NMR, DLPNO-MP2 response
   Willem Van den Heuvel  : Paramagnetic NMR
   Boris Wezisla          : Elementary symmetry handling
   Frank Wennmohs         : Technical directorship


 We gratefully acknowledge several colleagues who have allowed us to
 interface, adapt or use parts of their codes:
   Stefan Grimme, W. Hujo, H. Kruse, P. Pracht,  : VdW corrections, initial TS optimization,
                  C. Bannwarth, S. Ehlert          DFT functionals, gCP, sTDA/sTD-DF
   Ed Valeev, F. Pavosevic, A. Kumar             : LibInt (2-el integral package), F12 methods
   Garnet Chan, S. Sharma, J. Yang, R. Olivares  : DMRG
   Ulf Ekstrom                                   : XCFun DFT Library
   Mihaly Kallay                                 : mrcc  (arbitrary order and MRCC methods)
   Jiri Pittner, Ondrej Demel                    : Mk-CCSD
   Frank Weinhold                                : gennbo (NPA and NBO analysis)
   Christopher J. Cramer and Donald G. Truhlar   : smd solvation model
   Lars Goerigk                                  : TD-DFT with DH, B97 family of functionals
   V. Asgeirsson, H. Jonsson                     : NEB implementation
   FAccTs GmbH                                   : IRC, NEB, NEB-TS, DLPNO-Multilevel, CI-OPT
                                                   MM, QMMM, 2- and 3-layer-ONIOM, Crystal-QMMM,
                                                   LR-CPCM, SF, NACMEs, symmetry and pop. for TD-DFT,
                                                   nearIR, NL-DFT gradient (VV10), updates on ESD,
                                                   ML-optimized integration grids
   S Lehtola, MJT Oliveira, MAL Marques          : LibXC Library
   Liviu Ungur et al                             : ANISO software


 Your calculation uses the libint2 library for the computation of 2-el integrals
 For citations please refer to: http://libint.valeyev.net

 Your ORCA version has been built with support for libXC version: 5.2.2
 For citations please refer to: https://tddft.org/programs/libxc/

 This ORCA versions uses:
   CBLAS   interface :  Fast vector & matrix operations
   LAPACKE interface :  Fast linear algebra routines
   SCALAPACK package :  Parallel linear algebra routines
   Shared memory     :  Shared parallel matrices


================================================================================

----- Orbital basis set information -----
Your calculation utilizes the basis: def2-TZVP
   F. Weigend and R. Ahlrichs, Phys. Chem. Chem. Phys. 7, 3297 (2005).

----- AuxC basis set information -----
Your calculation utilizes the auxiliary basis: def2-TZVP/C
  H-La, Hf-Rn : A. Hellweg, C. Hattig, S. Hofener and W. Klopper, Theor. Chem. Acc. 117, 587 (2007).
        Ce-Lu : J. Chmela and M. E. Harding, Mol. Phys. (2018).

================================================================================
                                        WARNINGS
                       Please study these warnings very carefully!
================================================================================


INFO   : the flag for use of the SHARK integral package has been found!

================================================================================
                                       INPUT FILE
================================================================================
NAME = mol.inp
|  1> ! def2-TZVP def2-TZVP/C moread
|  2> 
|  3> %moinp "cas_2_2.gbw"
|  4> 
|  5> %maxcore 3000
|  6> 
|  7> %pal
|  8>   nprocs 8
|  9> end
| 10> 
| 11> %casscf
| 12>   nel 12
| 13>   norb 12
| 14>   mult 3,1
| 15>   nroots 1,3
| 16>   maxiter 1
| 17>   cistep ice
| 18>   ci
| 19>     icetype csfs
| 20>     tgen 1e-4
| 21>     tvar 1e-10
| 22>     csfciwithri 0
| 23>     cibufferlength 10000000
| 24>   end
| 25>   refs
| 26>     {2 2 2 2 2 1 1}
| 27>   end
| 28>   refs
| 29>     {2 2 2 2 2 2 0}
| 30>     {2 2 2 2 2 0 2}
| 31>     {2 2 2 2 2 1 -1}
| 32>   end
| 33>   rel
| 34>     dosoc true
| 35>     dossc true
| 36>     ssc_unequalmult true
| 37>   end
| 38> end
| 39> 
| 40> *xyz 0 3
| 41> O 0.0 0.0 0.0
| 42> O 0.0 0.0 1.2058
| 43> * 
| 44> 
| 45>                          ****END OF INPUT****
================================================================================

                       ****************************
                       * Single Point Calculation *
                       ****************************

---------------------------------
CARTESIAN COORDINATES (ANGSTROEM)
---------------------------------
  O      0.000000    0.000000    0.000000
  O      0.000000    0.000000    1.205800

----------------------------
CARTESIAN COORDINATES (A.U.)
----------------------------
  NO LB      ZA    FRAG     MASS         X           Y           Z
   0 O     8.0000    0    15.999    0.000000    0.000000    0.000000
   1 O     8.0000    0    15.999    0.000000    0.000000    2.278632

--------------------------------
INTERNAL COORDINATES (ANGSTROEM)
--------------------------------
 O      0   0   0     0.000000000000     0.00000000     0.00000000
 O      1   0   0     1.205800000000     0.00000000     0.00000000

---------------------------
INTERNAL COORDINATES (A.U.)
---------------------------
 O      0   0   0     0.000000000000     0.00000000     0.00000000
 O      1   0   0     2.278631772282     0.00000000     0.00000000

---------------------
BASIS SET INFORMATION
---------------------
There are 1 groups of distinct atoms

 Group   1 Type O   : 11s6p2d1f contracted to 5s3p2d1f pattern {62111/411/11/1}

---------------------------------
AUXILIARY/C BASIS SET INFORMATION
---------------------------------
There are 1 groups of distinct atoms

 Group   1 Type O   : 8s6p5d3f1g contracted to 8s6p4d3f1g pattern {11111111/111111/2111/111/1}



           ************************************************************
           *        Program running with 8 parallel MPI-processes     *
           *              working on a common directory               *
           ************************************************************
------------------------------------------------------------------------------
                           ORCA GTO INTEGRAL CALCULATION
------------------------------------------------------------------------------
------------------------------------------------------------------------------
                   ___                                                        
                  /   \      - P O W E R E D   B Y -                         
                 /     \                                                     
                 |  |  |   _    _      __       _____    __    __             
                 |  |  |  | |  | |    /  \     |  _  \  |  |  /  |          
                  \  \/   | |  | |   /    \    | | | |  |  | /  /          
                 / \  \   | |__| |  /  /\  \   | |_| |  |  |/  /          
                |  |  |   |  __  | /  /__\  \  |    /   |      \           
                |  |  |   | |  | | |   __   |  |    \   |  |\   \          
                \     /   | |  | | |  |  |  |  | |\  \  |  | \   \       
                 \___/    |_|  |_| |__|  |__|  |_| \__\ |__|  \__/        
                                                                              
                      - O R C A' S   B I G   F R I E N D -                    
                                      &                                       
                       - I N T E G R A L  F E E D E R -                       
                                                                              
 v1 FN, 2020, v2 2021                                                         
------------------------------------------------------------------------------


----------------------
SHARK INTEGRAL PACKAGE
----------------------

Number of atoms                             ...      2
Number of basis functions                   ...     62
Number of shells                            ...     22
Maximum angular momentum                    ...      3
Integral batch strategy                     ... SHARK/LIBINT Hybrid
RI-J (if used) integral strategy            ... SPLIT-RIJ (Revised 2003 algorithm where possible)
Printlevel                                  ...      1
Contraction scheme used                     ... SEGMENTED contraction
Prescreening option                         ... SCHWARTZ
   Thresh                                   ... 1.000e-10
   Tcut                                     ... 1.000e-11
   Tpresel                                  ... 1.000e-11 
Coulomb Range Separation                    ... NOT USED
Exchange Range Separation                   ... NOT USED
Finite Nucleus Model                        ... NOT USED
Auxiliary Coulomb fitting basis             ... NOT available
Auxiliary J/K fitting basis                 ... NOT available
Auxiliary Correlation fitting basis         ... AVAILABLE
   # of basis functions in Aux-C            ...    152
   # of shells in Aux-C                     ...     44
   Maximum angular momentum in Aux-C        ...      4
Auxiliary 'external' fitting basis          ... NOT available

Calculating pre-screening integrals         ... done (  0.0 sec) Dimension = 22
Organizing shell pair data                  ... done (  0.0 sec)
Shell pair information
Total number of shell pairs                 ...       253
Shell pairs after pre-screening             ...       252
Total number of primitive shell pairs       ...       864
Primitive shell pairs kept                  ...       783
          la=0 lb=0:     54 shell pairs
          la=1 lb=0:     60 shell pairs
          la=1 lb=1:     21 shell pairs
          la=2 lb=0:     40 shell pairs
          la=2 lb=1:     24 shell pairs
          la=2 lb=2:     10 shell pairs
          la=3 lb=0:     20 shell pairs
          la=3 lb=1:     12 shell pairs
          la=3 lb=2:      8 shell pairs
          la=3 lb=3:      3 shell pairs

Calculating one electron integrals          ... done (  0.0 sec)
Calculating RI/C V-Matrix + Cholesky decomp.... done (  0.1 sec)
Calculating Nuclear repulsion               ... done (  0.0 sec) ENN=     28.087030462100 Eh

-------------------
DFT GRID GENERATION
-------------------

General Integration Accuracy     IntAcc      ... 4.388
Radial Grid Type                 RadialGrid  ... OptM3 with GC (2021)
Angular Grid (max. ang.)         AngularGrid ... 4 (Lebedev-302)
Angular grid pruning method      GridPruning ... 4 (adaptive)
Weight generation scheme         WeightScheme... mBecke (2022)
Basis function cutoff            BFCut       ... 1.0000e-10
Integration weight cutoff        WCut        ... 1.0000e-14
Partially contracted basis set               ... off
Rotationally invariant grid construction     ... off
Angular grids for H and He will be reduced by one unit

Total number of grid points                  ...    12260
Total number of batches                      ...      192
Average number of points per batch           ...       63
Average number of grid points per atom       ...     6130
Initializing poperty integral containers    ... done (  0.0 sec)

SHARK setup successfully completed in   0.4 seconds

Maximum memory used throughout the entire GTOINT-calculation: 14.0 MB


           ************************************************************
           *        Program running with 8 parallel MPI-processes     *
           *              working on a common directory               *
           ************************************************************

------------------------------------------------------------------------------
                         ORCA PROPERTY INTEGRAL CALCULATIONS
------------------------------------------------------------------------------

GBWName                                   ... mol.gbw
Number of atoms                           ...      2
Number of basis functions                 ...     62
Max core memory                           ...   3000 MB

Dipole integrals                          ... YES
Quadrupole integrals                      ...  NO
Linear Momentum integrals                 ...  NO
Angular Momentum integrals                ...  NO
Higher Moments length integrals           ...  NO
Higher Moments velocity integrals         ...  NO
Kinetic energy integrals                  ...  NO
GIAO Right Hand Sides                     ...  NO
SOC integrals                             ...  NO
EPR diamagnetic integrals (GIAO)          ...  NO
EPR gauge integrals                       ...  NO
Field gradient integrals                  ...  NO (   0 nuclei)
Spin-dipole/Fermi contact integrals       ...  NO (   0 nuclei)
Nucleus-orbit integrals                   ...  NO (   0 nuclei)
Geometric perturbations                   ...  NO (   2 nuclei)
Electric origin: (  0.0000,  0.0000,  1.1393) 
Magnetic origin: (  0.0000,  0.0000,  0.0000) 

Calculating integrals                     ... Electric Dipole (Length)     done (  0.0 sec)

Property integrals calculated in   0.0 sec

Maximum memory used throughout the entire PROPINT-calculation: 7.0 MB


           ************************************************************
           *        Program running with 8 parallel MPI-processes     *
           *              working on a common directory               *
           ************************************************************
-------------------------------------------------------------------------------
                                 ORCA SCF
-------------------------------------------------------------------------------

------------
SCF SETTINGS
------------
Hamiltonian:
 Ab initio Hamiltonian  Method          .... Hartree-Fock(GTOs)


General Settings:
 Integral files         IntName         .... mol
 Hartree-Fock type      HFTyp           .... CASSCF
 Total Charge           Charge          ....    0
 Multiplicity           Mult            ....    3
 Number of Electrons    NEL             ....   16
 Basis Dimension        Dim             ....   62
 Nuclear Repulsion      ENuc            ....     28.0870304621 Eh


Diagonalization of the overlap matrix:
Smallest eigenvalue                        ... 1.850e-03
Time for diagonalization                   ...    0.003 sec
Threshold for overlap eigenvalues          ... 1.000e-08
Number of eigenvalues below threshold      ... 0
Time for construction of square roots      ...    0.024 sec
Total time needed                          ...    0.027 sec

---------------------
INITIAL GUESS: MOREAD
---------------------


WARNING!!!!!!!
Your GBWFile is either corrupt or from a different ORCA version!
Please be VERY careful with your calculation results!!!

Data_size, sizeof( TOrcaInfo ): 770368, 776288
Guess MOs are being read from file: cas_2_2.gbw
Input Geometry matches current geometry (good)
Input basis set matches current basis set (good)
MOs were renormalized
Gram-Schmidt orthogonalization of all MOs with pivot on actives
                      ------------------
                      INITIAL GUESS DONE (   0.0 sec)
                      ------------------


 ... the calculation is a CASSCF calculation -I'm leaving here GOOD LUCK!!!



           ************************************************************
           *        Program running with 8 parallel MPI-processes     *
           *              working on a common directory               *
           ************************************************************
-------------------------------------------------------------------------------
                              ORCA-CASSCF
-------------------------------------------------------------------------------

Setting up the integral package     ... done
Setting up CIPSI                      ... 


Checking CIPSI (ICE) Settings:
     MaxDim    10
     UsingRI   0
     CIPSISweepWindow   -1
     CIETol    1.000e-08
     CIRTol    1.000e-08
     NGMat     512
done (  0.0 sec)

SYSTEM-SPECIFIC SETTINGS:
Number of active electrons          ...   12
Number of active orbitals           ...   12
Total number of electrons           ...   16
Total number of orbitals            ...   62

Determined orbital ranges:
   Internal       0 -    1 (   2 orbitals)
   Active         2 -   13 (  12 orbitals)
   External      14 -   61 (  48 orbitals)
Number of rotation parameters      ...    696

CI-STEP:
CI strategy                         ... ICE (approximate)
Number of multiplicity blocks       ...    2
BLOCK  0 WEIGHT=   0.5000
  Multiplicity                      ...    3
  #(Roots)                          ...    1
    ROOT=0 WEIGHT=    0.500000

BLOCK  1 WEIGHT=   0.5000
  Multiplicity                      ...    1
  #(Roots)                          ...    3
    ROOT=0 WEIGHT=    0.166667
    ROOT=1 WEIGHT=    0.166667
    ROOT=2 WEIGHT=    0.166667

  PrintLevel                        ...    1
  N(GuessMat)                       ...       512
  MaxDim(CI)                        ...        10
  MaxIter(CI)                       ...        64
  Energy Tolerance CI               ... -1.00e+00
  Residual Tolerance CI             ... -1.00e+00
  Shift(CI)                         ...  1.00e-04
  ICE TGen                          ... 1.000e-04
  ICE TVar                          ... 1.000e-10
  ICE Type                          ... 1

INTEGRAL-TRANSFORMATION-STEP:
  Algorithm                         ... EXACT

ORBITAL-IMPROVEMENT-STEP:
  MaxMacroIter 1 detected                >>> CAS-CI. Check your FINAL ORBITAL options!

SCF-SETTINGS:
  Incremental                       ... on
  RIJCOSX approximation             ... off
  RI-JK approximation               ... off
  AO integral handling              ... DIRECT
  Integral Neglect Thresh           ...  1.00e-10
  Primitive cutoff TCut             ...  1.00e-11
  Energy convergence tolerance      ...  1.00e-07
  Orbital gradient convergence      ...  1.00e-03
  Max. number of iterations         ...         1  


PROPERTIES-SETTINGS:
  Spin orbit coupling               ... true

FINAL ORBITALS:
  Active   Orbitals                 ... unchanged 
  Internal Orbitals                 ... canonical 
  External Orbitals                 ... canonical 

------------------
CAS-SCF ITERATIONS
------------------


MACRO-ITERATION   1: 
   --- Inactive Energy E0 = -102.41516137 Eh
   --- All densities will be recomputed

                       ****Iteration    0****
  T(sigma)=     0.137 sec T(BLAS)=    0.000 NAv(S)= 735.0 NMax(S)=105
   Maximum residual norm  :     0.000000000000

      *** CONVERGENCE OF RESIDUAL NORM REACHED ***
STATE   0 MULT= 3: E=   -149.6604730630 Eh W=  0.5000 DE= 0.000 eV      0.0 cm**-1
      1.00000 ( 1.000000000) CSF = 2 2 2 2 2 1+1+0 0 0 0 0 


                  **********************************
                  *  ICECI/CSF MACROITERATION   1  *
                  **********************************

   # of selected CSFs                    ...    420

                       ****Iteration    0****
  T(sigma)=     0.145 sec T(BLAS)=    0.000 NAv(S)=14121.9 NMax(S)=2306
   Maximum residual norm  :     0.000000000000

      *** CONVERGENCE OF RESIDUAL NORM REACHED ***
STATE   0 MULT= 3: E=   -149.7424968873 Eh W=  0.5000 DE= 0.000 eV      0.0 cm**-1
      0.94248 (-0.970811780) CSF = 2 2 2 2 2 1+1+0 0 0 0 0 
      0.03031 ( 0.174108533) CSF = 2 2 2 1+1+2 2 0 0 0 0 0 

Resetting TVAR
   # of selected  CSFs                        ...    420
   # of generator CSFs                        ...     51
   # of NEW generator CSFs                    ...     50
   # of S+D CSFs generated                    ...  44009
   Selecting from the generated CSFs          ...    # of CSFs after Selection                  ...   8329
   # of NEW selected CSFs                     ...   7909

                  **********************************
                  *  ICECI/CSF MACROITERATION   2  *
                  **********************************

   # of selected CSFs                    ...   8329

                       ****Iteration    0****
  T(sigma)=     0.832 sec T(BLAS)=    0.000 NAv(S)=82079.4 NMax(S)=9145
   Maximum residual norm  :     0.011290779164

                       ****Iteration    1****
  T(sigma)=     0.833 sec T(BLAS)=    0.000 NAv(S)=82079.4 NMax(S)=9145
   Maximum residual norm  :     0.000959004479

                       ****Iteration    2****
  T(sigma)=     0.833 sec T(BLAS)=    0.000 NAv(S)=82079.4 NMax(S)=9145
   Maximum residual norm  :     0.000082238814

                       ****Iteration    3****
  T(sigma)=     0.833 sec T(BLAS)=    0.000 NAv(S)=82079.4 NMax(S)=9145
   Maximum residual norm  :     0.000005864808

                       ****Iteration    4****
  T(sigma)=     0.833 sec T(BLAS)=    0.000 NAv(S)=82079.4 NMax(S)=9145
   Maximum residual norm  :     0.000000491097

                       ****Iteration    5****
  T(sigma)=     0.833 sec T(BLAS)=    0.000 NAv(S)=82079.4 NMax(S)=9145
   Maximum residual norm  :     0.000000038592

                       ****Iteration    6****
  T(sigma)=     0.833 sec T(BLAS)=    0.000 NAv(S)=82079.4 NMax(S)=9145
   Maximum residual norm  :     0.000000002783

      *** CONVERGENCE OF RESIDUAL NORM REACHED ***
STATE   0 MULT= 3: E=   -149.7458856137 Eh W=  0.5000 DE= 0.000 eV      0.0 cm**-1
      0.93772 ( 0.968360000) CSF = 2 2 2 2 2 1+1+0 0 0 0 0 
      0.03140 (-0.177192300) CSF = 2 2 2 1+1+2 2 0 0 0 0 0 

Resetting TVAR
   # of selected  CSFs                        ...   8328
   # of generator CSFs                        ...     51
   # of NEW generator CSFs                    ...      0


FINAL CIPSI ENERGIES
  Final CIPSI Energy Root   0:   -149.745885614 EH
   CI-PROBLEM SOLVED (  8.8 sec)
   DENSITIES MADE

                       ****Iteration    0****
  T(sigma)=     0.137 sec T(BLAS)=    0.000 NAv(S)= 769.0 NMax(S)=103
   Maximum residual norm  :     0.000000000000

      *** CONVERGENCE OF RESIDUAL NORM REACHED ***
STATE   0 MULT= 1: E=   -149.6134210895 Eh W=  0.1667 DE= 0.000 eV      0.0 cm**-1
      1.00000 (-1.000000000) CSF = 2 2 2 2 2 1+1-0 0 0 0 0 

STATE   1 MULT= 1: E=   -149.6134210886 Eh W=  0.1667 DE= 0.000 eV      0.0 cm**-1
      0.50000 ( 0.707106781) CSF = 2 2 2 2 2 2 0 0 0 0 0 0 
      0.50000 (-0.707106781) CSF = 2 2 2 2 2 0 2 0 0 0 0 0 

STATE   2 MULT= 1: E=   -149.5663691151 Eh W=  0.1667 DE= 1.280 eV  10326.7 cm**-1
      0.50000 ( 0.707106781) CSF = 2 2 2 2 2 2 0 0 0 0 0 0 
      0.50000 ( 0.707106781) CSF = 2 2 2 2 2 0 2 0 0 0 0 0 


                  **********************************
                  *  ICECI/CSF MACROITERATION   1  *
                  **********************************

   # of selected CSFs                    ...    448

                       ****Iteration    0****
  T(sigma)=     0.144 sec T(BLAS)=    0.000 NAv(S)=8024.9 NMax(S)=1350
   Maximum residual norm  :     0.000000000000

      *** CONVERGENCE OF RESIDUAL NORM REACHED ***
STATE   0 MULT= 1: E=   -149.7047039545 Eh W=  0.1667 DE= 0.000 eV      0.0 cm**-1
      0.45144 ( 0.671891116) CSF = 2 2 2 2 2 0 2 0 0 0 0 0 
      0.45144 (-0.671891116) CSF = 2 2 2 2 2 2 0 0 0 0 0 0 
      0.02610 (-0.161557840) CSF = 2 2 2 2 0 2 2 0 0 0 0 0 
      0.02610 ( 0.161557840) CSF = 2 2 2 0 2 2 2 0 0 0 0 0 
      0.02436 ( 0.156066226) CSF = 2 2 2 2 2 1+1-0 0 0 0 0 

STATE   1 MULT= 1: E=   -149.7046975956 Eh W=  0.1667 DE= 0.000 eV      1.4 cm**-1
      0.90291 ( 0.950213755) CSF = 2 2 2 2 2 1+1-0 0 0 0 0 
      0.05217 ( 0.228400652) CSF = 2 2 2 1+1-2 2 0 0 0 0 0 
      0.01218 ( 0.110353863) CSF = 2 2 2 2 2 2 0 0 0 0 0 0 
      0.01218 (-0.110353863) CSF = 2 2 2 2 2 0 2 0 0 0 0 0 

STATE   2 MULT= 1: E=   -149.6830136354 Eh W=  0.1667 DE= 0.590 eV   4760.5 cm**-1
      0.45459 (-0.674235760) CSF = 2 2 2 2 2 0 2 0 0 0 0 0 
      0.45459 (-0.674235760) CSF = 2 2 2 2 2 2 0 0 0 0 0 0 
      0.03447 ( 0.185670548) CSF = 2 2 2 2 0 2 2 0 0 0 0 0 
      0.03447 ( 0.185670548) CSF = 2 2 2 0 2 2 2 0 0 0 0 0 
      0.00409 ( 0.063946807) CSF = 2 0 2 2 2 2 2 0 0 0 0 0 

Resetting TVAR
   # of selected  CSFs                        ...    448
   # of generator CSFs                        ...    109
   # of NEW generator CSFs                    ...    106
   # of S+D CSFs generated                    ...  43639
   Selecting from the generated CSFs          ...    # of CSFs after Selection                  ...   9415
   # of NEW selected CSFs                     ...   8967

                  **********************************
                  *  ICECI/CSF MACROITERATION   2  *
                  **********************************

   # of selected CSFs                    ...   9415

                       ****Iteration    0****
  T(sigma)=     0.819 sec T(BLAS)=    0.000 NAv(S)=54110.9 NMax(S)=6374
   Maximum residual norm  :     0.013432976593

                       ****Iteration    1****
  T(sigma)=     0.819 sec T(BLAS)=    0.000 NAv(S)=54110.9 NMax(S)=6374
   Maximum residual norm  :     0.001171336143

                       ****Iteration    2****
  T(sigma)=     0.820 sec T(BLAS)=    0.000 NAv(S)=54110.9 NMax(S)=6374
   Maximum residual norm  :     0.000122490949

                       ****Iteration    3****
  T(sigma)=     0.819 sec T(BLAS)=    0.000 NAv(S)=54110.9 NMax(S)=6374
   Maximum residual norm  :     0.000013080550

                       ****Iteration    4****
  T(sigma)=     0.821 sec T(BLAS)=    0.000 NAv(S)=54110.9 NMax(S)=6374
   Maximum residual norm  :     0.000000990999

                       ****Iteration    5****
  T(sigma)=     0.820 sec T(BLAS)=    0.000 NAv(S)=54110.9 NMax(S)=6374
   Maximum residual norm  :     0.000000085834

                       ****Iteration    6****
  T(sigma)=     0.819 sec T(BLAS)=    0.000 NAv(S)=54110.9 NMax(S)=6374
   Maximum residual norm  :     0.000000006413

      *** CONVERGENCE OF RESIDUAL NORM REACHED ***
STATE   0 MULT= 1: E=   -149.7078350619 Eh W=  0.1667 DE= 0.000 eV      0.0 cm**-1
      0.89154 ( 0.944213596) CSF = 2 2 2 2 2 1+1-0 0 0 0 0 
      0.05324 ( 0.230745320) CSF = 2 2 2 1+1-2 2 0 0 0 0 0 
      0.01569 (-0.125264612) CSF = 2 2 2 2 2 0 2 0 0 0 0 0 
      0.01569 ( 0.125256232) CSF = 2 2 2 2 2 2 0 0 0 0 0 0 

STATE   1 MULT= 1: E=   -149.7078339045 Eh W=  0.1667 DE= 0.000 eV      0.3 cm**-1
      0.44578 ( 0.667664856) CSF = 2 2 2 2 2 2 0 0 0 0 0 0 
      0.44576 (-0.667656130) CSF = 2 2 2 2 2 0 2 0 0 0 0 0 
      0.03138 (-0.177145187) CSF = 2 2 2 2 2 1+1-0 0 0 0 0 
      0.02662 (-0.163161118) CSF = 2 2 2 0 2 2 2 0 0 0 0 0 
      0.02662 ( 0.163158689) CSF = 2 2 2 2 0 2 2 0 0 0 0 0 

STATE   2 MULT= 1: E=   -149.6869446889 Eh W=  0.1667 DE= 0.568 eV   4584.9 cm**-1
      0.45204 (-0.672336928) CSF = 2 2 2 2 2 0 2 0 0 0 0 0 
      0.45203 (-0.672329676) CSF = 2 2 2 2 2 2 0 0 0 0 0 0 
      0.03521 ( 0.187640532) CSF = 2 2 2 2 0 2 2 0 0 0 0 0 
      0.03521 ( 0.187638809) CSF = 2 2 2 0 2 2 2 0 0 0 0 0 
      0.00430 ( 0.065607242) CSF = 2 0 2 2 2 2 2 0 0 0 0 0 

Resetting TVAR
   # of selected  CSFs                        ...   9415
   # of generator CSFs                        ...    118
   # of NEW generator CSFs                    ...      9
   # of S+D CSFs generated                    ...  16380
   Selecting from the generated CSFs          ...    # of CSFs after Selection                  ...   9907
   # of NEW selected CSFs                     ...    492
   maximum energy change                ... 3.931e-03 Eh

                  **********************************
                  *  ICECI/CSF MACROITERATION   3  *
                  **********************************

   # of selected CSFs                    ...   9907

                       ****Iteration    0****
  T(sigma)=     0.928 sec T(BLAS)=    0.000 NAv(S)=59661.5 NMax(S)=7535
   Maximum residual norm  :     0.000018763961

                       ****Iteration    1****
  T(sigma)=     0.930 sec T(BLAS)=    0.000 NAv(S)=59661.5 NMax(S)=7535
   Maximum residual norm  :     0.000000226917

                       ****Iteration    2****
  T(sigma)=     0.929 sec T(BLAS)=    0.000 NAv(S)=59661.5 NMax(S)=7535
   Maximum residual norm  :     0.000000014147

                       ****Iteration    3****
  T(sigma)=     0.929 sec T(BLAS)=    0.000 NAv(S)=59661.5 NMax(S)=7535

         *** CONVERGENCE OF ENERGIES REACHED ***
STATE   0 MULT= 1: E=   -149.7078387218 Eh W=  0.1667 DE= 0.000 eV      0.0 cm**-1
      0.90360 (-0.950579461) CSF = 2 2 2 2 2 1+1-0 0 0 0 0 
      0.05398 (-0.232326495) CSF = 2 2 2 1+1-2 2 0 0 0 0 0 
      0.00965 ( 0.098257281) CSF = 2 2 2 2 2 0 2 0 0 0 0 0 
      0.00965 (-0.098252153) CSF = 2 2 2 2 2 2 0 0 0 0 0 0 

STATE   1 MULT= 1: E=   -149.7078360582 Eh W=  0.1667 DE= 0.000 eV      0.6 cm**-1
      0.45181 ( 0.672167765) CSF = 2 2 2 2 2 2 0 0 0 0 0 0 
      0.45180 (-0.672160610) CSF = 2 2 2 2 2 0 2 0 0 0 0 0 
      0.02699 (-0.164274138) CSF = 2 2 2 0 2 2 2 0 0 0 0 0 
      0.02699 ( 0.164272124) CSF = 2 2 2 2 0 2 2 0 0 0 0 0 
      0.01931 (-0.138953572) CSF = 2 2 2 2 2 1+1-0 0 0 0 0 

STATE   2 MULT= 1: E=   -149.6869466776 Eh W=  0.1667 DE= 0.569 eV   4585.3 cm**-1
      0.45204 ( 0.672335680) CSF = 2 2 2 2 2 0 2 0 0 0 0 0 
      0.45203 ( 0.672329122) CSF = 2 2 2 2 2 2 0 0 0 0 0 0 
      0.03521 (-0.187638712) CSF = 2 2 2 2 0 2 2 0 0 0 0 0 
      0.03521 (-0.187637212) CSF = 2 2 2 0 2 2 2 0 0 0 0 0 
      0.00431 (-0.065616746) CSF = 2 0 2 2 2 2 2 0 0 0 0 0 

Resetting TVAR
   # of selected  CSFs                        ...   9907
   # of generator CSFs                        ...    118
   # of NEW generator CSFs                    ...      0


FINAL CIPSI ENERGIES
  Final CIPSI Energy Root   0:   -149.707838722 EH
  Final CIPSI Energy Root   1:   -149.707836058 EH
  Final CIPSI Energy Root   2:   -149.686946678 EH
   CI-PROBLEM SOLVED ( 13.2 sec)
   DENSITIES MADE

                 <<<<<<<<<<<<<<<<<<INITIAL CI STATE CHECK>>>>>>>>>>>>>>>>>>

BLOCK  0 MULT= 3 NROOTS= 1 
STATE   0 MULT= 3: E=   -149.7458856137 Eh W=  0.5000 DE= 0.000 eV      0.0 cm**-1
      0.93772 ( 0.968360000) CSF = 2 2 2 2 2 1+1+0 0 0 0 0 
      0.03140 (-0.177192300) CSF = 2 2 2 1+1+2 2 0 0 0 0 0 


BLOCK  1 MULT= 1 NROOTS= 3 
STATE   0 MULT= 1: E=   -149.7078387218 Eh W=  0.1667 DE= 0.000 eV      0.0 cm**-1
      0.90360 (-0.950579461) CSF = 2 2 2 2 2 1+1-0 0 0 0 0 
      0.05398 (-0.232326495) CSF = 2 2 2 1+1-2 2 0 0 0 0 0 
      0.00965 ( 0.098257281) CSF = 2 2 2 2 2 0 2 0 0 0 0 0 
      0.00965 (-0.098252153) CSF = 2 2 2 2 2 2 0 0 0 0 0 0 

STATE   1 MULT= 1: E=   -149.7078360582 Eh W=  0.1667 DE= 0.000 eV      0.6 cm**-1
      0.45181 ( 0.672167765) CSF = 2 2 2 2 2 2 0 0 0 0 0 0 
      0.45180 (-0.672160610) CSF = 2 2 2 2 2 0 2 0 0 0 0 0 
      0.02699 (-0.164274138) CSF = 2 2 2 0 2 2 2 0 0 0 0 0 
      0.02699 ( 0.164272124) CSF = 2 2 2 2 0 2 2 0 0 0 0 0 
      0.01931 (-0.138953572) CSF = 2 2 2 2 2 1+1-0 0 0 0 0 

STATE   2 MULT= 1: E=   -149.6869466776 Eh W=  0.1667 DE= 0.569 eV   4585.3 cm**-1
      0.45204 ( 0.672335680) CSF = 2 2 2 2 2 0 2 0 0 0 0 0 
      0.45203 ( 0.672329122) CSF = 2 2 2 2 2 2 0 0 0 0 0 0 
      0.03521 (-0.187638712) CSF = 2 2 2 2 0 2 2 0 0 0 0 0 
      0.03521 (-0.187637212) CSF = 2 2 2 0 2 2 2 0 0 0 0 0 
      0.00431 (-0.065616746) CSF = 2 0 2 2 2 2 2 0 0 0 0 0 


                 <<<<<<<<<<<<<<<<<<INITIAL CI STATE CHECK>>>>>>>>>>>>>>>>>>

   E(CAS)=  -149.723379716 Eh DE=    0.000000e+00
   --- Energy gap subspaces: Ext-Act = 0.070   Act-Int = 19.088
   N(occ)=  1.99605 1.99211 1.99148 1.94190 1.94190 1.05122 1.05122 0.00996 0.00616 0.00792 0.00792 0.00216
   ||g|| =     1.584991e-01 Max(G)=   -5.524647e-02 Rot=29,6
--------------
CASSCF RESULTS
--------------

Final CASSCF energy       : -149.723379716 Eh   -4074.1803 eV

----------------
ORBITAL ENERGIES
----------------

  NO   OCC          E(Eh)            E(eV) 
   0   2.0000     -20.756338      -564.8087 
   1   2.0000     -20.755420      -564.7837 
   2   1.9961      -1.667425       -45.3729 
   3   1.9921      -1.109479       -30.1905 
   4   1.9915      -0.746971       -20.3261 
   5   1.9419      -0.710085       -19.3224 
   6   1.9419      -0.710085       -19.3224 
   7   1.0512      -0.235735        -6.4147 
   8   1.0512      -0.235735        -6.4147 
   9   0.0100       0.348737         9.4896 
  10   0.0062       0.472552        12.8588 
  11   0.0079       0.528493        14.3810 
  12   0.0079       0.528493        14.3810 
  13   0.0022       0.570777        15.5316 
  14   0.0000       0.640615        17.4320 
  15   0.0000       0.640615        17.4320 
  16   0.0000       0.658206        17.9107 
  17   0.0000       0.905146        24.6303 
  18   0.0000       1.461751        39.7763 
  19   0.0000       1.461751        39.7763 
  20   0.0000       1.553254        42.2662 
  21   0.0000       1.553254        42.2662 
  22   0.0000       1.895533        51.5801 
  23   0.0000       1.895533        51.5801 
  24   0.0000       2.102267        57.2056 
  25   0.0000       2.400927        65.3326 
  26   0.0000       2.400927        65.3326 
  27   0.0000       2.429962        66.1226 
  28   0.0000       2.789112        75.8956 
  29   0.0000       2.789112        75.8956 
  30   0.0000       2.858201        77.7756 
  31   0.0000       3.091202        84.1159 
  32   0.0000       3.133105        85.2561 
  33   0.0000       3.133105        85.2561 
  34   0.0000       3.276822        89.1669 
  35   0.0000       4.630256       125.9957 
  36   0.0000       4.978665       135.4764 
  37   0.0000       4.978665       135.4764 
  38   0.0000       5.025762       136.7579 
  39   0.0000       5.025762       136.7579 
  40   0.0000       5.325580       144.9164 
  41   0.0000       5.325580       144.9164 
  42   0.0000       5.417204       147.4096 
  43   0.0000       5.577145       151.7618 
  44   0.0000       5.577145       151.7618 
  45   0.0000       6.129564       166.7939 
  46   0.0000       6.129564       166.7939 
  47   0.0000       6.530256       177.6973 
  48   0.0000       6.530256       177.6973 
  49   0.0000       6.742777       183.4803 
  50   0.0000       6.742777       183.4803 
  51   0.0000       6.773433       184.3145 
  52   0.0000       6.773433       184.3145 
  53   0.0000       6.828993       185.8263 
  54   0.0000       6.887142       187.4087 
  55   0.0000       6.887142       187.4087 
  56   0.0000       7.659049       208.4133 
  57   0.0000       7.659049       208.4133 
  58   0.0000       7.931068       215.8153 
  59   0.0000       9.131436       248.4790 
  60   0.0000      44.469566      1210.0784 
  61   0.0000      45.008102      1224.7327 


---------------------------------------------
CAS-SCF STATES FOR BLOCK  0 MULT= 3 NROOTS= 1
---------------------------------------------

STATE   0 MULT= 3: E=   -149.7458856137 Eh W=  0.5000 DE= 0.000 eV      0.0 cm**-1
      0.93772 ( 0.968360000) CSF = 2 2 2 2 2 1+1+0 0 0 0 0 
      0.03140 (-0.177192300) CSF = 2 2 2 1+1+2 2 0 0 0 0 0 



---------------------------------------------
CAS-SCF STATES FOR BLOCK  1 MULT= 1 NROOTS= 3
---------------------------------------------

STATE   0 MULT= 1: E=   -149.7078387218 Eh W=  0.1667 DE= 0.000 eV      0.0 cm**-1
      0.90360 (-0.950579461) CSF = 2 2 2 2 2 1+1-0 0 0 0 0 
      0.05398 (-0.232326495) CSF = 2 2 2 1+1-2 2 0 0 0 0 0 
      0.00965 ( 0.098257281) CSF = 2 2 2 2 2 0 2 0 0 0 0 0 
      0.00965 (-0.098252153) CSF = 2 2 2 2 2 2 0 0 0 0 0 0 

STATE   1 MULT= 1: E=   -149.7078360582 Eh W=  0.1667 DE= 0.000 eV      0.6 cm**-1
      0.45181 ( 0.672167765) CSF = 2 2 2 2 2 2 0 0 0 0 0 0 
      0.45180 (-0.672160610) CSF = 2 2 2 2 2 0 2 0 0 0 0 0 
      0.02699 (-0.164274138) CSF = 2 2 2 0 2 2 2 0 0 0 0 0 
      0.02699 ( 0.164272124) CSF = 2 2 2 2 0 2 2 0 0 0 0 0 
      0.01931 (-0.138953572) CSF = 2 2 2 2 2 1+1-0 0 0 0 0 

STATE   2 MULT= 1: E=   -149.6869466776 Eh W=  0.1667 DE= 0.569 eV   4585.3 cm**-1
      0.45204 ( 0.672335680) CSF = 2 2 2 2 2 0 2 0 0 0 0 0 
      0.45203 ( 0.672329122) CSF = 2 2 2 2 2 2 0 0 0 0 0 0 
      0.03521 (-0.187638712) CSF = 2 2 2 2 0 2 2 0 0 0 0 0 
      0.03521 (-0.187637212) CSF = 2 2 2 0 2 2 2 0 0 0 0 0 
      0.00431 (-0.065616746) CSF = 2 0 2 2 2 2 2 0 0 0 0 0 



-----------------------------
SA-CASSCF TRANSITION ENERGIES
------------------------------

LOWEST ROOT (ROOT 0 ,MULT 3) =   -149.745885614 Eh -4074.793 eV

STATE   ROOT MULT  DE/a.u.    DE/eV    DE/cm**-1
   1:    0    1   0.038047     1.035   8350.3
   2:    1    1   0.038050     1.035   8350.9
   3:    2    1   0.058939     1.604  12935.6


--------------
DENSITY MATRIX
--------------

                  0          1          2          3          4          5    
      0       1.996050   0.000000   0.001889   0.000000   0.000000   0.000000
      1       0.000000   1.992106   0.000000   0.000000   0.000000   0.000000
      2       0.001889   0.000000   1.991475   0.000000   0.000000   0.000000
      3       0.000000   0.000000   0.000000   1.941903  -0.000001   0.000000
      4       0.000000   0.000000   0.000000  -0.000001   1.941902   0.000000
      5       0.000000   0.000000   0.000000   0.000000   0.000000   1.051216
      6       0.000000   0.000000   0.000000   0.000000   0.000000  -0.000000
      7       0.000000  -0.000984   0.000000   0.000000   0.000000   0.000000
      8       0.005782   0.000000   0.026199   0.000000   0.000000   0.000000
      9       0.000000   0.000000   0.000000  -0.005330   0.003462   0.000000
     10       0.000000   0.000000   0.000000   0.003473   0.005328   0.000000
     11      -0.000813   0.000000   0.010151   0.000000   0.000000   0.000000
                  6          7          8          9         10         11    
      0       0.000000   0.000000   0.005782   0.000000   0.000000  -0.000813
      1       0.000000  -0.000984   0.000000   0.000000   0.000000   0.000000
      2       0.000000   0.000000   0.026199   0.000000   0.000000   0.010151
      3       0.000000   0.000000   0.000000  -0.005330   0.003473   0.000000
      4       0.000000   0.000000   0.000000   0.003462   0.005328   0.000000
      5      -0.000000   0.000000   0.000000   0.000000   0.000000   0.000000
      6       1.051216   0.000000   0.000000   0.000000   0.000000   0.000000
      7       0.000000   0.009959   0.000000   0.000000   0.000000   0.000000
      8       0.000000   0.000000   0.006164   0.000000   0.000000   0.001080
      9       0.000000   0.000000   0.000000   0.007924  -0.000000   0.000000
     10       0.000000   0.000000   0.000000  -0.000000   0.007925   0.000000
     11       0.000000   0.000000   0.001080   0.000000   0.000000   0.002159
Trace of the electron density: 12.000000
Extracting Spin-Density from 2-RDM (MULT=3) ... done
Extracting Spin-Density from 2-RDM (MULT=1) ... done

-------------------
SPIN-DENSITY MATRIX
-------------------

                  0          1          2          3          4          5    
      0       0.000137   0.000000   0.000424   0.000000   0.000000   0.000000
      1       0.000000   0.000883   0.000000   0.000000   0.000000   0.000000
      2       0.000424   0.000000   0.000560   0.000000   0.000000   0.000000
      3       0.000000   0.000000   0.000000   0.020314   0.000001   0.000000
      4       0.000000   0.000000   0.000000   0.000001   0.020314   0.000000
      5       0.000000   0.000000   0.000000   0.000000   0.000000   0.477263
      6       0.000000   0.000000   0.000000   0.000000   0.000000   0.000001
      7       0.000000  -0.023055   0.000000   0.000000   0.000000   0.000000
      8      -0.007679   0.000000  -0.010880   0.000000   0.000000   0.000000
      9       0.000000   0.000000   0.000000   0.025552  -0.016633   0.000000
     10       0.000000   0.000000   0.000000  -0.016629  -0.025552   0.000000
     11      -0.001247   0.000000  -0.005520   0.000000   0.000000   0.000000
                  6          7          8          9         10         11    
      0       0.000000   0.000000  -0.007679   0.000000   0.000000  -0.001247
      1       0.000000  -0.023055   0.000000   0.000000   0.000000   0.000000
      2       0.000000   0.000000  -0.010880   0.000000   0.000000  -0.005520
      3       0.000000   0.000000   0.000000   0.025552  -0.016629   0.000000
      4       0.000000   0.000000   0.000000  -0.016633  -0.025552   0.000000
      5       0.000001   0.000000   0.000000   0.000000   0.000000   0.000000
      6       0.477265   0.000000   0.000000   0.000000   0.000000   0.000000
      7       0.000000   0.000739   0.000000   0.000000   0.000000   0.000000
      8       0.000000   0.000000  -0.000270   0.000000   0.000000   0.000120
      9       0.000000   0.000000   0.000000   0.001402   0.000001   0.000000
     10       0.000000   0.000000   0.000000   0.000001   0.001402   0.000000
     11       0.000000   0.000000   0.000120   0.000000   0.000000  -0.000008
Trace of the spin density:  1.000000

-----------------
ENERGY COMPONENTS
-----------------

One electron energy          :   -261.376229220 Eh       -7112.4088 eV
Two electron energy          :     83.565819041 Eh        2273.9415 eV
Nuclear repulsion energy     :     28.087030462 Eh         764.2870 eV
                               ----------------
                                 -149.723379716

Kinetic energy               :    149.311351091 Eh        4062.9684 eV
Potential energy             :   -299.034730808 Eh       -8137.1487 eV
Virial ratio                 :     -2.002759526 
                               ----------------
                                 -149.723379716

Core energy                  :   -102.415161372 Eh    -2786.8582 eV


----------------------------
LOEWDIN ORBITAL-COMPOSITIONS
----------------------------

                      0         1         2         3         4         5   
                 -20.75634 -20.75542  -1.66743  -1.10948  -0.74697  -0.71008
                   2.00000   2.00000   1.99605   1.99211   1.99148   1.94190
                  --------  --------  --------  --------  --------  --------
 0 O  s              49.9      49.9      39.4      33.2       9.2       0.0
 0 O  pz              0.0       0.0       8.8      15.3      40.4       0.0
 0 O  px              0.0       0.0       0.0       0.0       0.0      48.7
 0 O  dz2             0.0       0.0       1.6       1.4       0.4       0.0
 0 O  dxz             0.0       0.0       0.0       0.0       0.0       1.2
 0 O  f0              0.0       0.0       0.2       0.1       0.1       0.0
 0 O  f+1             0.0       0.0       0.0       0.0       0.0       0.1
 1 O  s              49.9      49.9      39.4      33.2       9.2       0.0
 1 O  pz              0.0       0.0       8.8      15.3      40.4       0.0
 1 O  px              0.0       0.0       0.0       0.0       0.0      48.7
 1 O  dz2             0.0       0.0       1.6       1.4       0.4       0.0
 1 O  dxz             0.0       0.0       0.0       0.0       0.0       1.2
 1 O  f0              0.0       0.0       0.2       0.1       0.1       0.0
 1 O  f+1             0.0       0.0       0.0       0.0       0.0       0.1

                      6         7         8         9        10        11   
                  -0.71009  -0.23574  -0.23573   0.34874   0.47255   0.52849
                   1.94190   1.05122   1.05122   0.00996   0.00616   0.00792
                  --------  --------  --------  --------  --------  --------
 0 O  s               0.0       0.0       0.0       7.2      45.9       0.0
 0 O  pz              0.0       0.0       0.0      33.6       2.4       0.0
 0 O  px              0.0       0.0      47.6       0.0       0.0      34.7
 0 O  py             48.7      47.6       0.0       0.0       0.0      14.6
 0 O  dz2             0.0       0.0       0.0       8.9       1.7       0.0
 0 O  dxz             0.0       0.0       2.1       0.0       0.0       0.4
 0 O  dyz             1.2       2.1       0.0       0.0       0.0       0.2
 0 O  f0              0.0       0.0       0.0       0.3       0.1       0.0
 0 O  f+1             0.0       0.0       0.3       0.0       0.0       0.1
 0 O  f-1             0.1       0.3       0.0       0.0       0.0       0.0
 1 O  s               0.0       0.0       0.0       7.2      45.9       0.0
 1 O  pz              0.0       0.0       0.0      33.6       2.4       0.0
 1 O  px              0.0       0.0      47.6       0.0       0.0      34.7
 1 O  py             48.7      47.6       0.0       0.0       0.0      14.6
 1 O  dz2             0.0       0.0       0.0       8.9       1.7       0.0
 1 O  dxz             0.0       0.0       2.1       0.0       0.0       0.4
 1 O  dyz             1.2       2.1       0.0       0.0       0.0       0.2
 1 O  f0              0.0       0.0       0.0       0.3       0.1       0.0
 1 O  f+1             0.0       0.0       0.3       0.0       0.0       0.1
 1 O  f-1             0.1       0.3       0.0       0.0       0.0       0.0

                     12        13        14        15        16        17   
                   0.52849   0.57078   0.64061   0.64061   0.65821   0.90515
                   0.00792   0.00216   0.00000   0.00000   0.00000   0.00000
                  --------  --------  --------  --------  --------  --------
 0 O  s               0.0       1.0       0.0       0.0       1.7      44.7
 0 O  pz              0.0      44.1       0.0       0.0      40.6       2.2
 0 O  px             14.6       0.0       0.3      49.0       0.0       0.0
 0 O  py             34.7       0.0      49.0       0.3       0.0       0.0
 0 O  dz2             0.0       4.7       0.0       0.0       7.2       2.6
 0 O  dxz             0.2       0.0       0.0       0.6       0.0       0.0
 0 O  dyz             0.4       0.0       0.6       0.0       0.0       0.0
 0 O  f0              0.0       0.2       0.0       0.0       0.6       0.6
 0 O  f-1             0.1       0.0       0.1       0.0       0.0       0.0
 1 O  s               0.0       1.0       0.0       0.0       1.7      44.7
 1 O  pz              0.0      44.1       0.0       0.0      40.6       2.2
 1 O  px             14.6       0.0       0.3      49.0       0.0       0.0
 1 O  py             34.7       0.0      49.0       0.3       0.0       0.0
 1 O  dz2             0.0       4.7       0.0       0.0       7.2       2.6
 1 O  dxz             0.2       0.0       0.0       0.6       0.0       0.0
 1 O  dyz             0.4       0.0       0.6       0.0       0.0       0.0
 1 O  f0              0.0       0.2       0.0       0.0       0.6       0.6
 1 O  f-1             0.1       0.0       0.1       0.0       0.0       0.0

                     18        19        20        21        22        23   
                   1.46175   1.46175   1.55325   1.55325   1.89553   1.89553
                   0.00000   0.00000   0.00000   0.00000   0.00000   0.00000
                  --------  --------  --------  --------  --------  --------
 0 O  px              0.0       0.0       0.5       1.4       0.0       0.0
 0 O  py              0.0       0.0       1.4       0.5       0.0       0.0
 0 O  dxz             0.0       0.0      13.4      34.6       0.0       0.0
 0 O  dyz             0.0       0.0      34.6      13.4       0.0       0.0
 0 O  dx2y2          49.7       0.0       0.0       0.0      49.6       0.0
 0 O  dxy             0.0      49.7       0.0       0.0       0.0      49.6
 0 O  f+2             0.3       0.0       0.0       0.0       0.4       0.0
 0 O  f-2             0.0       0.3       0.0       0.0       0.0       0.4
 1 O  px              0.0       0.0       0.5       1.4       0.0       0.0
 1 O  py              0.0       0.0       1.4       0.5       0.0       0.0
 1 O  dxz             0.0       0.0      13.4      34.6       0.0       0.0
 1 O  dyz             0.0       0.0      34.6      13.4       0.0       0.0
 1 O  dx2y2          49.7       0.0       0.0       0.0      49.6       0.0
 1 O  dxy             0.0      49.7       0.0       0.0       0.0      49.6
 1 O  f+2             0.3       0.0       0.0       0.0       0.4       0.0
 1 O  f-2             0.0       0.3       0.0       0.0       0.0       0.4

                     24        25        26        27        28        29   
                   2.10227   2.40093   2.40093   2.42996   2.78911   2.78911
                   0.00000   0.00000   0.00000   0.00000   0.00000   0.00000
                  --------  --------  --------  --------  --------  --------
 0 O  s               4.6       0.0       0.0       5.3       0.0       0.0
 0 O  pz              9.4       0.0       0.0      17.1       0.0       0.0
 0 O  px              0.0       0.1       7.6       0.0      36.1      13.7
 0 O  py              0.0       7.6       0.1       0.0      13.7      36.1
 0 O  dz2            36.0       0.0       0.0      24.7       0.0       0.0
 0 O  dxz             0.0       0.5      39.0       0.0       0.1       0.0
 0 O  dyz             0.0      39.0       0.5       0.0       0.0       0.1
 0 O  f0              0.0       0.0       0.0       2.8       0.0       0.0
 0 O  f+1             0.0       0.0       2.8       0.0       0.0       0.0
 0 O  f-1             0.0       2.8       0.0       0.0       0.0       0.0
 1 O  s               4.6       0.0       0.0       5.3       0.0       0.0
 1 O  pz              9.4       0.0       0.0      17.1       0.0       0.0
 1 O  px              0.0       0.1       7.6       0.0      36.1      13.7
 1 O  py              0.0       7.6       0.1       0.0      13.7      36.1
 1 O  dz2            36.0       0.0       0.0      24.7       0.0       0.0
 1 O  dxz             0.0       0.5      39.0       0.0       0.1       0.0
 1 O  dyz             0.0      39.0       0.5       0.0       0.0       0.1
 1 O  f0              0.0       0.0       0.0       2.8       0.0       0.0
 1 O  f+1             0.0       0.0       2.8       0.0       0.0       0.0
 1 O  f-1             0.0       2.8       0.0       0.0       0.0       0.0

                     30        31        32        33        34        35   
                   2.85820   3.09120   3.13311   3.13311   3.27682   4.63026
                   0.00000   0.00000   0.00000   0.00000   0.00000   0.00000
                  --------  --------  --------  --------  --------  --------
 0 O  s              40.7      28.8       0.0       0.0       6.0      13.1
 0 O  pz              8.9      17.4       0.0       0.0      31.3      10.6
 0 O  px              0.0       0.0       0.1      41.9       0.0       0.0
 0 O  py              0.0       0.0      41.9       0.1       0.0       0.0
 0 O  dz2             0.1       3.3       0.0       0.0       5.8       0.0
 0 O  dxz             0.0       0.0       0.0       3.4       0.0       0.0
 0 O  dyz             0.0       0.0       3.4       0.0       0.0       0.0
 0 O  f0              0.3       0.5       0.0       0.0       6.9      26.2
 0 O  f+1             0.0       0.0       0.0       4.6       0.0       0.0
 0 O  f-1             0.0       0.0       4.6       0.0       0.0       0.0
 1 O  s              40.7      28.8       0.0       0.0       6.0      13.1
 1 O  pz              8.9      17.4       0.0       0.0      31.3      10.6
 1 O  px              0.0       0.0       0.1      41.9       0.0       0.0
 1 O  py              0.0       0.0      41.9       0.1       0.0       0.0
 1 O  dz2             0.1       3.3       0.0       0.0       5.8       0.0
 1 O  dxz             0.0       0.0       0.0       3.4       0.0       0.0
 1 O  dyz             0.0       0.0       3.4       0.0       0.0       0.0
 1 O  f0              0.3       0.5       0.0       0.0       6.9      26.2
 1 O  f+1             0.0       0.0       0.0       4.6       0.0       0.0
 1 O  f-1             0.0       0.0       4.6       0.0       0.0       0.0

                     36        37        38        39        40        41   
                   4.97866   4.97866   5.02576   5.02576   5.32558   5.32558
                   0.00000   0.00000   0.00000   0.00000   0.00000   0.00000
                  --------  --------  --------  --------  --------  --------
 0 O  px              0.0       0.0       0.1       0.1       0.0       0.0
 0 O  py              0.0       0.0       0.1       0.1       0.0       0.0
 0 O  dxz             0.0       0.0       3.3       1.2       0.0       0.0
 0 O  dyz             0.0       0.0       1.2       3.3       0.0       0.0
 0 O  dx2y2           0.3       0.0       0.0       0.0       0.0       0.0
 0 O  dxy             0.0       0.3       0.0       0.0       0.0       0.0
 0 O  f+1             0.0       0.0      33.0      12.2       0.0       0.0
 0 O  f-1             0.0       0.0      12.2      33.0       0.0       0.0
 0 O  f+2            49.7       0.0       0.0       0.0       0.0       0.0
 0 O  f-2             0.0      49.7       0.0       0.0       0.0       0.0
 0 O  f+3             0.0       0.0       0.0       0.0       0.7      49.3
 0 O  f-3             0.0       0.0       0.0       0.0      49.3       0.7
 1 O  px              0.0       0.0       0.1       0.1       0.0       0.0
 1 O  py              0.0       0.0       0.1       0.1       0.0       0.0
 1 O  dxz             0.0       0.0       3.3       1.2       0.0       0.0
 1 O  dyz             0.0       0.0       1.2       3.3       0.0       0.0
 1 O  dx2y2           0.3       0.0       0.0       0.0       0.0       0.0
 1 O  dxy             0.0       0.3       0.0       0.0       0.0       0.0
 1 O  f+1             0.0       0.0      33.0      12.2       0.0       0.0
 1 O  f-1             0.0       0.0      12.2      33.0       0.0       0.0
 1 O  f+2            49.7       0.0       0.0       0.0       0.0       0.0
 1 O  f-2             0.0      49.7       0.0       0.0       0.0       0.0
 1 O  f+3             0.0       0.0       0.0       0.0       0.7      49.3
 1 O  f-3             0.0       0.0       0.0       0.0      49.3       0.7

                     42        43        44        45        46        47   
                   5.41720   5.57715   5.57715   6.12956   6.12956   6.53026
                   0.00000   0.00000   0.00000   0.00000   0.00000   0.00000
                  --------  --------  --------  --------  --------  --------
 0 O  s               1.5       0.0       0.0       0.0       0.0       0.0
 0 O  pz              2.4       0.0       0.0       0.0       0.0       0.0
 0 O  dz2            16.7       0.0       0.0       0.0       0.0       0.0
 0 O  dx2y2           0.0       0.0       0.0       5.9       0.0      50.0
 0 O  dxy             0.0       0.0       0.0       0.0       5.9       0.0
 0 O  f0             29.4       0.0       0.0       0.0       0.0       0.0
 0 O  f+2             0.0       0.0       0.0      44.1       0.0       0.0
 0 O  f-2             0.0       0.0       0.0       0.0      44.1       0.0
 0 O  f+3             0.0       7.3      42.7       0.0       0.0       0.0
 0 O  f-3             0.0      42.7       7.3       0.0       0.0       0.0
 1 O  s               1.5       0.0       0.0       0.0       0.0       0.0
 1 O  pz              2.4       0.0       0.0       0.0       0.0       0.0
 1 O  dz2            16.7       0.0       0.0       0.0       0.0       0.0
 1 O  dx2y2           0.0       0.0       0.0       5.9       0.0      50.0
 1 O  dxy             0.0       0.0       0.0       0.0       5.9       0.0
 1 O  f0             29.4       0.0       0.0       0.0       0.0       0.0
 1 O  f+2             0.0       0.0       0.0      44.1       0.0       0.0
 1 O  f-2             0.0       0.0       0.0       0.0      44.1       0.0
 1 O  f+3             0.0       7.3      42.7       0.0       0.0       0.0
 1 O  f-3             0.0      42.7       7.3       0.0       0.0       0.0

                     48        49        50        51        52        53   
                   6.53026   6.74278   6.74278   6.77343   6.77343   6.82899
                   0.00000   0.00000   0.00000   0.00000   0.00000   0.00000
                  --------  --------  --------  --------  --------  --------
 0 O  s               0.0       0.0       0.0       0.0       0.0       2.4
 0 O  pz              0.0       0.0       0.0       0.0       0.0       1.6
 0 O  px              0.0       0.0       0.0       0.0       0.1       0.0
 0 O  py              0.0       0.0       0.0       0.1       0.0       0.0
 0 O  dz2             0.0       0.0       0.0       0.0       0.0      43.8
 0 O  dxz             0.0       0.0       0.0       0.8      46.4       0.0
 0 O  dyz             0.0       0.0       0.0      46.4       0.8       0.0
 0 O  dx2y2           0.0      44.6       0.0       0.0       0.0       0.0
 0 O  dxy            50.0       0.0      44.6       0.0       0.0       0.0
 0 O  f0              0.0       0.0       0.0       0.0       0.0       2.2
 0 O  f+1             0.0       0.0       0.0       0.0       2.6       0.0
 0 O  f-1             0.0       0.0       0.0       2.6       0.0       0.0
 0 O  f+2             0.0       5.4       0.0       0.0       0.0       0.0
 0 O  f-2             0.0       0.0       5.4       0.0       0.0       0.0
 1 O  s               0.0       0.0       0.0       0.0       0.0       2.4
 1 O  pz              0.0       0.0       0.0       0.0       0.0       1.6
 1 O  px              0.0       0.0       0.0       0.0       0.1       0.0
 1 O  py              0.0       0.0       0.0       0.1       0.0       0.0
 1 O  dz2             0.0       0.0       0.0       0.0       0.0      43.8
 1 O  dxz             0.0       0.0       0.0       0.8      46.4       0.0
 1 O  dyz             0.0       0.0       0.0      46.4       0.8       0.0
 1 O  dx2y2           0.0      44.6       0.0       0.0       0.0       0.0
 1 O  dxy            50.0       0.0      44.6       0.0       0.0       0.0
 1 O  f0              0.0       0.0       0.0       0.0       0.0       2.2
 1 O  f+1             0.0       0.0       0.0       0.0       2.6       0.0
 1 O  f-1             0.0       0.0       0.0       2.6       0.0       0.0
 1 O  f+2             0.0       5.4       0.0       0.0       0.0       0.0
 1 O  f-2             0.0       0.0       5.4       0.0       0.0       0.0

                     54        55        56        57        58        59   
                   6.88714   6.88714   7.65905   7.65905   7.93107   9.13144
                   0.00000   0.00000   0.00000   0.00000   0.00000   0.00000
                  --------  --------  --------  --------  --------  --------
 0 O  s               0.0       0.0       0.0       0.0       1.8      13.7
 0 O  pz              0.0       0.0       0.0       0.0       2.3      11.6
 0 O  px              0.0       0.0       0.0       3.4       0.0       0.0
 0 O  py              0.0       0.0       3.4       0.0       0.0       0.0
 0 O  dz2             0.0       0.0       0.0       0.0      33.1       8.0
 0 O  dxz            33.9      11.7       0.0       7.0       0.0       0.0
 0 O  dyz            11.7      33.9       7.0       0.0       0.0       0.0
 0 O  f0              0.0       0.0       0.0       0.0      12.8      16.7
 0 O  f+1             3.3       1.1       0.1      39.4       0.0       0.0
 0 O  f-1             1.1       3.3      39.4       0.1       0.0       0.0
 1 O  s               0.0       0.0       0.0       0.0       1.8      13.7
 1 O  pz              0.0       0.0       0.0       0.0       2.3      11.6
 1 O  px              0.0       0.0       0.0       3.4       0.0       0.0
 1 O  py              0.0       0.0       3.4       0.0       0.0       0.0
 1 O  dz2             0.0       0.0       0.0       0.0      33.1       8.0
 1 O  dxz            33.9      11.7       0.0       7.0       0.0       0.0
 1 O  dyz            11.7      33.9       7.0       0.0       0.0       0.0
 1 O  f0              0.0       0.0       0.0       0.0      12.8      16.7
 1 O  f+1             3.3       1.1       0.1      39.4       0.0       0.0
 1 O  f-1             1.1       3.3      39.4       0.1       0.0       0.0

                     60        61   
                  44.46957  45.00810
                   0.00000   0.00000
                  --------  --------
 0 O  s              50.0      50.0
 1 O  s              50.0      50.0

----------------------------
LOEWDIN REDUCED ACTIVE MOs  
----------------------------

                      0         1         2         3         4         5   
                 -20.75634 -20.75542  -1.66743  -1.10948  -0.74697  -0.71008
                   2.00000   2.00000   1.99605   1.99211   1.99148   1.94190
                  --------  --------  --------  --------  --------  --------
 0 O  s              49.9      49.9      39.4      33.2       9.2       0.0
 0 O  pz              0.0       0.0       8.8      15.3      40.4       0.0
 0 O  px              0.0       0.0       0.0       0.0       0.0      48.7
 1 O  s              49.9      49.9      39.4      33.2       9.2       0.0
 1 O  pz              0.0       0.0       8.8      15.3      40.4       0.0
 1 O  px              0.0       0.0       0.0       0.0       0.0      48.7

                      6         7         8         9        10        11   
                  -0.71009  -0.23574  -0.23573   0.34874   0.47255   0.52849
                   1.94190   1.05122   1.05122   0.00996   0.00616   0.00792
                  --------  --------  --------  --------  --------  --------
 0 O  s               0.0       0.0       0.0       7.2      45.9       0.0
 0 O  pz              0.0       0.0       0.0      33.6       2.4       0.0
 0 O  px              0.0       0.0      47.6       0.0       0.0      34.7
 0 O  py             48.7      47.6       0.0       0.0       0.0      14.6
 0 O  dz2             0.0       0.0       0.0       8.9       1.7       0.0
 1 O  s               0.0       0.0       0.0       7.2      45.9       0.0
 1 O  pz              0.0       0.0       0.0      33.6       2.4       0.0
 1 O  px              0.0       0.0      47.6       0.0       0.0      34.7
 1 O  py             48.7      47.6       0.0       0.0       0.0      14.6
 1 O  dz2             0.0       0.0       0.0       8.9       1.7       0.0

                     12        13        14        15        16        17   
                   0.52849   0.57078   0.64061   0.64061   0.65821   0.90515
                   0.00792   0.00216   0.00000   0.00000   0.00000   0.00000
                  --------  --------  --------  --------  --------  --------
 0 O  s               0.0       1.0       0.0       0.0       1.7      44.7
 0 O  pz              0.0      44.1       0.0       0.0      40.6       2.2
 0 O  px             14.6       0.0       0.3      49.0       0.0       0.0
 0 O  py             34.7       0.0      49.0       0.3       0.0       0.0
 0 O  dz2             0.0       4.7       0.0       0.0       7.2       2.6
 1 O  s               0.0       1.0       0.0       0.0       1.7      44.7
 1 O  pz              0.0      44.1       0.0       0.0      40.6       2.2
 1 O  px             14.6       0.0       0.3      49.0       0.0       0.0
 1 O  py             34.7       0.0      49.0       0.3       0.0       0.0
 1 O  dz2             0.0       4.7       0.0       0.0       7.2       2.6

------------------------------------------------------------------------------
                           ORCA POPULATION ANALYSIS
------------------------------------------------------------------------------
Input electron density              ... mol.scfp
Input spin density                  ... mol.scfr
BaseName (.gbw .S,...)              ... mol

                    ********************************
                    * MULLIKEN POPULATION ANALYSIS *
                    ********************************

------------------------------------------
MULLIKEN ATOMIC CHARGES AND SPIN DENSITIES
------------------------------------------
   0 O :   -0.000000    0.500000
   1 O :   -0.000000    0.500000
Sum of atomic charges       :   -0.0000000
Sum of atomic spin densities:    1.0000000

---------------------------------------------------
MULLIKEN REDUCED ORBITAL CHARGES AND SPIN DENSITIES
---------------------------------------------------
CHARGE
  0 O s       :     3.900151  s :     3.900151
      pz      :     1.075838  p :     4.040866
      px      :     1.482514
      py      :     1.482514
      dz2     :     0.020742  d :     0.054042
      dxz     :     0.016650
      dyz     :     0.016650
      dx2y2   :     0.000000
      dxy     :     0.000000
      f0      :     0.002225  f :     0.004941
      f+1     :     0.001358
      f-1     :     0.001358
      f+2     :     0.000000
      f-2     :     0.000000
      f+3     :     0.000000
      f-3     :     0.000000
  1 O s       :     3.900151  s :     3.900151
      pz      :     1.075838  p :     4.040866
      px      :     1.482514
      py      :     1.482514
      dz2     :     0.020742  d :     0.054042
      dxz     :     0.016650
      dyz     :     0.016650
      dx2y2   :     0.000000
      dxy     :     0.000000
      f0      :     0.002225  f :     0.004941
      f+1     :     0.001358
      f-1     :     0.001358
      f+2     :     0.000000
      f-2     :     0.000000
      f+3     :     0.000000
      f-3     :     0.000000

SPIN
  0 O s       :     0.025023  s :     0.025023
      pz      :    -0.023859  p :     0.472380
      px      :     0.248120
      py      :     0.248120
      dz2     :    -0.000141  d :     0.002400
      dxz     :     0.001271
      dyz     :     0.001271
      dx2y2   :     0.000000
      dxy     :     0.000000
      f0      :    -0.000002  f :     0.000196
      f+1     :     0.000099
      f-1     :     0.000099
      f+2     :     0.000000
      f-2     :     0.000000
      f+3     :     0.000000
      f-3     :     0.000000
  1 O s       :     0.025023  s :     0.025023
      pz      :    -0.023859  p :     0.472380
      px      :     0.248120
      py      :     0.248120
      dz2     :    -0.000141  d :     0.002400
      dxz     :     0.001271
      dyz     :     0.001271
      dx2y2   :     0.000000
      dxy     :     0.000000
      f0      :    -0.000002  f :     0.000196
      f+1     :     0.000099
      f-1     :     0.000099
      f+2     :     0.000000
      f-2     :     0.000000
      f+3     :     0.000000
      f-3     :     0.000000


                     *******************************
                     * LOEWDIN POPULATION ANALYSIS *
                     *******************************

-----------------------------------------
LOEWDIN ATOMIC CHARGES AND SPIN DENSITIES
-----------------------------------------
   0 O :   -0.000000    0.500000
   1 O :   -0.000000    0.500000

--------------------------------------------------
LOEWDIN REDUCED ORBITAL CHARGES AND SPIN DENSITIES
--------------------------------------------------
CHARGE
  0 O s       :     3.635640  s :     3.635640
      pz      :     1.286477  p :     4.186083
      px      :     1.449803
      py      :     1.449803
      dz2     :     0.069594  d :     0.159326
      dxz     :     0.044866
      dyz     :     0.044866
      dx2y2   :     0.000000
      dxy     :     0.000000
      f0      :     0.007246  f :     0.018951
      f+1     :     0.005852
      f-1     :     0.005852
      f+2     :     0.000000
      f-2     :     0.000000
      f+3     :     0.000000
      f-3     :     0.000000
  1 O s       :     3.635640  s :     3.635640
      pz      :     1.286477  p :     4.186083
      px      :     1.449803
      py      :     1.449803
      dz2     :     0.069594  d :     0.159326
      dxz     :     0.044866
      dyz     :     0.044866
      dx2y2   :     0.000000
      dxy     :     0.000000
      f0      :     0.007246  f :     0.018951
      f+1     :     0.005852
      f-1     :     0.005852
      f+2     :     0.000000
      f-2     :     0.000000
      f+3     :     0.000000
      f-3     :     0.000000

SPIN
  0 O s       :     0.005657  s :     0.005657
      pz      :    -0.006601  p :     0.467460
      px      :     0.237030
      py      :     0.237030
      dz2     :     0.001879  d :     0.023647
      dxz     :     0.010884
      dyz     :     0.010884
      dx2y2   :     0.000000
      dxy     :     0.000000
      f0      :     0.000084  f :     0.003236
      f+1     :     0.001576
      f-1     :     0.001576
      f+2     :     0.000000
      f-2     :     0.000000
      f+3     :     0.000000
      f-3     :     0.000000
  1 O s       :     0.005657  s :     0.005657
      pz      :    -0.006601  p :     0.467460
      px      :     0.237030
      py      :     0.237030
      dz2     :     0.001879  d :     0.023647
      dxz     :     0.010884
      dyz     :     0.010884
      dx2y2   :     0.000000
      dxy     :     0.000000
      f0      :     0.000084  f :     0.003236
      f+1     :     0.001576
      f-1     :     0.001576
      f+2     :    -0.000000
      f-2     :     0.000000
      f+3     :     0.000000
      f-3     :     0.000000


                      *****************************
                      * MAYER POPULATION ANALYSIS *
                      *****************************

  NA   - Mulliken gross atomic population
  ZA   - Total nuclear charge
  QA   - Mulliken gross atomic charge
  VA   - Mayer's total valence
  BVA  - Mayer's bonded valence
  FA   - Mayer's free valence

  ATOM       NA         ZA         QA         VA         BVA        FA
  0 O      8.0000     8.0000    -0.0000     2.4059     1.3427     1.0632
  1 O      8.0000     8.0000    -0.0000     2.4059     1.3427     1.0632

  Mayer bond orders larger than 0.100000
B(  0-O ,  1-O ) :   1.3427 

Warning: for CIStep = CIPSI, (some) properties are not implemented.

-------------------------------------------------------------
 Forming the transition density       ... done in 2.142958 sec
-------------------------------------------------------------



==========================================
CASSCF UV, CD spectra and dipole moments
==========================================
-------------------
ABSORPTION SPECTRUM
-------------------

Center of mass           = (  0.0000,  0.0000,  1.1393)
Nuclear contribution to the dipole moment =     0.000000,    0.000000,    0.000000 au

Calculating the Dipole integrals                  ... done
Transforming integrals                            ... done
Calculating the Linear Momentum integrals         ... done
Transforming integrals                            ... done
Calculating the Angular Momentum integrals        ... done
Transforming integrals                            ... done

------------------------------------------------------------------------------
                                 DIPOLE MOMENTS
------------------------------------------------------------------------------
  Root  Block           TX        TY        TZ           |T|
                      (Debye)   (Debye)   (Debye)      (Debye)
------------------------------------------------------------------------------
    0    0            0.00000  -0.00000  -0.00000      0.00000

==============================
CASSCF RELATIVISTIC PROPERTIES
==============================


Calculating SOCInts
Loading the effective charges         ... done
Entering the SOC calc. section        ... 
------------------------------------------------------------------------------
                         ORCA SPIN-ORBIT COUPLING CALCULATION
------------------------------------------------------------------------------

GBW file                                    ... mol.gbw
Input density                               ... mol.scfp
Output integrals                            ... mol
Operator type                               ... Mean-field/Effective potential
   One-Electron Terms                       ... 1
   Coulomb Contribution                     ... 4
   Exchange Contribution                    ... 3
   Correlation Contribution                 ... 0
   Maximum number of centers                ... 4
SHARK 1-electron  MaxCenter=4               ... done (  0.0 sec)
Evaluating Coulomb term analytically        ... 
SHARK 2-electron DoJ,X=1,1 MaxCenter=4      ... done (  0.3 sec)
   .... returned from the SOC program

----------------------------------
QDPT WITH CASSCF DIAGONAL ENERGIES
----------------------------------

*************************************
Doing QDPT with ONLY SOC!
*************************************

Lowest eigenvalue of the SOC matrix:    -149.74589617 Eh
Energy stabilization:    -2.31646 cm-1
Eigenvalues:     cm-1         eV      Boltzmann populations at T =  300.000 K
   0:            0.00        0.0000       3.36e-01
   1:            2.32        0.0003       3.32e-01
   2:            2.32        0.0003       3.32e-01
   3:         8352.64        1.0356       1.35e-18
   4:         8353.23        1.0357       1.34e-18
   5:        12940.23        1.6044       3.75e-28

The threshold for printing is 0.0100
Eigenvectors:
                         Weight      Real          Image    : Block Root    Spin   Ms
 STATE   0:       0.0000
[...]
Memory available                       ...   3000.0 MB
Memory needed                          ...      0.0 MB
Calculating two index integrals        ... done (    0.004 sec)
Calculating the V^(-1) matrix          ...
The smallest 3 eigenvalues: 3.276e-04 6.661e-04 7.876e-04
 done (    0.003 sec)

Starting direct RI integral transformation:
  Aux angular momentum 0               ... done (    0.006 sec)
  Aux angular momentum 1               ... done (    0.003 sec)
  Aux angular momentum 2               ... done (    0.001 sec)
  Aux angular momentum 3               ... done (    0.000 sec)
  Aux angular momentum 4               ... done (    0.001 sec)
(i,j) Transformation completed in     0.093 sec

Number of MO pairs per batch           ... 10
Max. Number of batches needed          ... 1
Third index is transformed in     0.096 sec

Two-center spin-spin integrals are calculated in    28.317 sec

Three index spin-spin MO-integrals done in     0.104 sec

Time needed for calculating the SSC RMEs: 3.226056 seconds

***********************************************************
* DOING EVERYTHING A SECOND TIME: THIS TIME INCLUDING SSC *
***********************************************************

----------------------------------
QDPT WITH CASSCF DIAGONAL ENERGIES
----------------------------------

*************************************
Doing QDPT with SOC AND SSC!
*************************************

Lowest eigenvalue of the SOC matrix:    -149.74589950 Eh
Energy stabilization:    -3.04776 cm-1
Eigenvalues:     cm-1         eV      Boltzmann populations at T =  300.000 K
   0:            0.00        0.0000       3.37e-01
   1:            3.41        0.0004       3.32e-01
   2:            3.41        0.0004       3.32e-01
   3:         8353.38        1.0357       1.35e-18
   4:         8353.96        1.0358       1.34e-18
   5:        12940.97        1.6045       3.75e-28

The threshold for printing is 0.0100
Eigenvectors:
                         Weight      Real          Image    : Block Root    Spin   Ms
 STATE   0:       0.0000
                         0.999821    -0.000000    -0.999910 :     0    0    1    0

 STATE   1:       3.4135
                         0.499235    -0.653136    -0.269534 :     0    0    1    1
                         0.500765    -0.653806     0.270745 :     0    0    1   -1

 STATE   2:       3.4135
                         0.500765     0.269725    -0.654227 :     0    0    1    1
                         0.499235     0.270553     0.652715 :     0    0    1   -1

 STATE   3:    8353.3753
                         1.000000     1.000000     0.000000 :     1    0    0    0

 STATE   4:    8353.9599
                         1.000000    -1.000000    -0.000000 :     1    1    0    0

 STATE   5:   12940.9654
                         0.999821     0.999910     0.000000 :     1    2    0    0


--------------------------------------------
           ZERO-FIELD SPLITTING
(2ND ORDER SPIN-ORBIT COUPLING CONTRIBUTION)
--------------------------------------------

Second order D-tensor: component '0'
    0.000000     0.000000     0.000000 
    0.000000     0.000000     0.000000 
    0.000000     0.000000     0.000000 

Second order D-tensor: component '-'
    0.000000     0.000000    -0.000000 
    0.000000     0.000000    -0.000000 
   -0.000000    -0.000000     2.316877 

Second order D-tensor: component '+'
    0.000000     0.000000     0.000000 
    0.000000     0.000000     0.000000 
    0.000000     0.000000     0.000000 

Raw matrix (cm-1):
    0.000000     0.000000    -0.000000 
    0.000000     0.000000    -0.000000 
   -0.000000    -0.000000     2.316877 

Eigenvalues (cm-1):
    0.000000     0.000000     2.316877 

Eigenvalues (traceless) (cm-1):
   -0.772292    -0.772292     1.544585 

Eigenvectors:
    0.159706    -0.987165    -0.000000 
   -0.987165    -0.159706    -0.000000 
   -0.000000    -0.000000     1.000000 

Euler angles w.r.t. molecular frame (degrees):
    -99.1899       0.0000       0.0000

D   =    2.316877  cm-1
E/D =    0.000000

Individual contributions to D-tensor:
Block  Mult  Root          D          E
    0     3     0      0.000      0.000
    1     1     0      0.000     -0.000
    1     1     1      0.000      0.000
    1     1     2      2.317     -0.000
Norm of projected state 0 of the effective Hamiltonian: 0.999821
Norm of projected state 1 of the effective Hamiltonian: 1.000000
Norm of projected state 2 of the effective Hamiltonian: 1.000000
WARNING: If the projections have norms significantly smaller than 1, the effective Hamiltonian might not be very meaningful!

--------------------------------------------------------
                  ZERO-FIELD SPLITTING
EFFECTIVE HAMILTONIAN SOC and SSC CONTRIBUTION
--------------------------------------------------------

Effective Hamiltonian from projected relativistic states and relativistic energies:

Real part:  
                  0          1          2    
      0       3.413478  -0.000000  -0.000005
      1      -0.000000   0.000000   0.000000
      2      -0.000005   0.000000   3.413478

Image part: 
                  0          1          2    
      0       0.000000   0.000000  -0.000005
      1      -0.000000  -0.000000  -0.000000
      2       0.000005   0.000000  -0.000000
Raw matrix (cm-1):
   -0.000005     0.000005    -0.000000 
    0.000005     0.000005    -0.000000 
   -0.000000    -0.000000     3.413478 

Eigenvalues (cm-1):
    0.000007    -0.000007     3.413478 

Eigenvalues (traceless) (cm-1):
   -1.137819    -1.137833     2.275652 

Eigenvectors:
   -0.382035    -0.924148    -0.000000 
   -0.924148     0.382035    -0.000000 
   -0.000000    -0.000000     1.000000 

Euler angles w.r.t. molecular frame (degrees):
    -67.5402       0.0000       0.0000

D   =    3.413478  cm-1
E/D =    0.000002

Individual contributions to D-tensor:
Block  Mult  Root          D          E
    1     1     0      0.000      0.000
    1     1     1     -0.000      0.000
    1     1     2      2.316      0.000

  *** Storing geometry in DTensor axis frame as mol.CAS_DTensor_HEFF_rotated.xyz  ***

--------------------------------
SOC CORRECTED EXCITATION SPECTRA
--------------------------------

Dim(SO)                  = 6
Number of initial states = -1
Center of mass           = (  0.0000,  0.0000,  1.1393)
Nuclear contribution to the dipole moment =     0.000000,    0.000000,    0.000000 au

Calculating the dipole integrals          ... done

------------------------------------------------------------------------------------------
                    SOC CORRECTED ABSORPTION SPECTRUM
------------------------------------------------------------------------------------------
  States   Energy   Wavelength   fosc          T2       |TX|       |TY|      |TZ| 
           (cm-1)     (nm)                   (D**2)      (D)        (D)       (D) 
------------------------------------------------------------------------------------------
 0  1       3.4   2929569.4   0.000000000   0.00000   0.00000   0.00000   0.00000
 0  2       3.4   2929557.1   0.000000000   0.00000   0.00000   0.00000   0.00000
 0  3    8353.4   1197.1   0.000000000   0.00000   0.00000   0.00000   0.00000
 0  4    8354.0   1197.0   0.000000000   0.00000   0.00000   0.00000   0.00000
 0  5   12941.0    772.7   0.000000000   0.00000   0.00000   0.00000   0.00000
 1  2       0.0   698830841834.2   0.000000000   0.00000   0.00000   0.00000   0.00000
 1  3    8350.0   1197.6   0.000000000   0.00000   0.00000   0.00000   0.00000
 1  4    8350.5   1197.5   0.000000000   0.00000   0.00000   0.00000   0.00000
 1  5   12937.6    772.9   0.000000000   0.00000   0.00000   0.00000   0.00000
 2  3    8350.0   1197.6   0.000000000   0.00000   0.00000   0.00000   0.00000
 2  4    8350.5   1197.5   0.000000000   0.00000   0.00000   0.00000   0.00000
 2  5   12937.6    772.9   0.000000000   0.00000   0.00000   0.00000   0.00000

------------------------------------------------------------------------------
                           SOC CORRECTED DIPOLE MOMENTS
------------------------------------------------------------------------------
      TX        TY        TZ           |T|
   (Debye)   (Debye)   (Debye)      (Debye)
------------------------------------------------------------------------------
   0.00000   0.00000   0.00000      0.00000

--------------
CASSCF TIMINGS
--------------

Total time                       ...       31.9 sec
Sum of individual times          ...       35.8 sec (112.4%)

Calculation of AO operators
   F(Core) operator              ...        0.1 sec (  0.2%)
   G(Act) operator               ...        0.0 sec (  0.1%)
Calculation of MO transformed quantities
   J(MO) operators               ...        0.1 sec (  0.3%)
   AO->MO one electron integrals ...        0.0 sec (  0.0%)
Configuration interaction steps
   CI-setup phase                ...        0.0 sec (  0.0%)
   CI-solution phase             ...       22.0 sec ( 69.1%)
   Generation of densities       ...        2.1 sec (  6.7%)
Orbital improvement steps
   Orbital gradient              ...        0.0 sec (  0.1%)
CPCM steps
   Total CPCM time               ...        0.0 sec (  0.1%)
Properties                       ...        7.2 sec ( 22.5%)
   SOC integral calculation      ...        0.5 sec (  1.5%)
   SSC RMEs (incl. integrals)    ...        3.2 sec ( 10.1%)
   SOC RMEs                      ...        0.6 sec (  1.8%)

Maximum memory used throughout the entire CASSCF-calculation: 914.4 MB


           ************************************************************
           *        Program running with 8 parallel MPI-processes     *
           *              working on a common directory               *
           ************************************************************

------------------------------------------------------------------------------
                         ORCA PROPERTY INTEGRAL CALCULATIONS
------------------------------------------------------------------------------

GBWName                                   ... mol.gbw
Number of atoms                           ...      2
Number of basis functions                 ...     62
Max core memory                           ...   3000 MB

Dipole integrals                          ... YES
Quadrupole integrals                      ...  NO
Linear Momentum integrals                 ...  NO
Angular Momentum integrals                ...  NO
Higher Moments length integrals           ...  NO
Higher Moments velocity integrals         ...  NO
Kinetic energy integrals                  ...  NO
GIAO Right Hand Sides                     ...  NO
SOC integrals                             ...  NO
EPR diamagnetic integrals (GIAO)          ...  NO
EPR gauge integrals                       ...  NO
Field gradient integrals                  ...  NO (   0 nuclei)
Spin-dipole/Fermi contact integrals       ...  NO (   0 nuclei)
Nucleus-orbit integrals                   ...  NO (   0 nuclei)
Geometric perturbations                   ...  NO (   2 nuclei)
Electric origin: (  0.0000,  0.0000,  1.1393) 
Magnetic origin: (  0.0000,  0.0000,  0.0000) 

Calculating integrals                     ... Electric Dipole (Length)     done (  0.0 sec)

Property integrals calculated in   0.0 sec

Maximum memory used throughout the entire PROPINT-calculation: 7.1 MB

-------------------------   --------------------
FINAL SINGLE POINT ENERGY      -149.723379716478
-------------------------   --------------------


                            ***************************************
                            *     ORCA property calculations      *
                            ***************************************

                                    ---------------------
                                    Active property flags
                                    ---------------------
   (+) Dipole Moment


------------------------------------------------------------------------------
                       ORCA ELECTRIC PROPERTIES CALCULATION
------------------------------------------------------------------------------

Dipole Moment Calculation                       ... ON
Quadrupole Moment Calculation                   ... OFF
Polarizability Calculation                      ... OFF
Atomic Dipole Moment Calculation                ... OFF
Atomic Quadrupole Moment Calculation            ... OFF
Atomic Polarizability Calculation               ... OFF
GBWName                                         ... mol.gbw
Electron density                                ... mol.scfp

The origin for moment calculation is the CENTER OF MASS  = ( 0.000000,  0.000000  1.139316)

-------------
DIPOLE MOMENT
-------------
                                X             Y             Z
Electronic contribution:      0.00000      -0.00000      -0.00000
Nuclear contribution   :      0.00000       0.00000       0.00000
                        -----------------------------------------
Total Dipole Moment    :      0.00000      -0.00000      -0.00000
                        -----------------------------------------
Magnitude (a.u.)       :      0.00000
Magnitude (Debye)      :      0.00000



--------------------
Rotational spectrum 
--------------------
 
Rotational constants in cm-1:     0.000000     1.449384     1.449384 
Rotational constants in MHz :     0.000000 43451.442843 43451.442843 

 Dipole components along the rotational axes: 
x,y,z [a.u.] :    -0.000000    -0.000000     0.000000 
x,y,z [Debye]:    -0.000000    -0.000000     0.000000 

 

                           *** CIPSI DENSITY ***

------------------------------------------------------------------------------
                       ORCA ELECTRIC PROPERTIES CALCULATION
------------------------------------------------------------------------------

Dipole Moment Calculation                       ... ON
Quadrupole Moment Calculation                   ... OFF
Polarizability Calculation                      ... OFF
Atomic Dipole Moment Calculation                ... OFF
Atomic Quadrupole Moment Calculation            ... OFF
Atomic Polarizability Calculation               ... OFF
GBWName                                         ... mol.gbw
Electron density                                ... mol.cipsip

The origin for moment calculation is the CENTER OF MASS  = ( 0.000000,  0.000000  1.139316)

-------------
DIPOLE MOMENT
-------------
                                X             Y             Z
Electronic contribution:      0.00000      -0.00000      -0.00000
Nuclear contribution   :      0.00000       0.00000       0.00000
                        -----------------------------------------
Total Dipole Moment    :      0.00000      -0.00000      -0.00000
                        -----------------------------------------
Magnitude (a.u.)       :      0.00000
Magnitude (Debye)      :      0.00000



--------------------
Rotational spectrum 
--------------------
 
Rotational constants in cm-1:     0.000000     1.449384     1.449384 
Rotational constants in MHz :     0.000000 43451.442843 43451.442843 

 Dipole components along the rotational axes: 
x,y,z [a.u.] :    -0.000000    -0.000000     0.000000 
x,y,z [Debye]:    -0.000000    -0.000000     0.000000 

 

--------------------------------
SUGGESTED CITATIONS FOR THIS RUN
--------------------------------

Below you find a list of papers that are relevant to this ORCA run
We neither can nor want to force you to cite these paper, but we appreciate if you do
You receive ORCA, which is the product of a lot of hard work by many enthusiastic individuals, for free
The only thing we kindly ask in return is that you cite our papers,
We deeply appreciate it, if you show your appreciation for ORCA by not just citing the generic ORCA reference.

Please note that relegating all ORCA citations to the supporting information does *not* help us.
SI sections are not indexed - citations you put there will not count into any citation statistics
But we need these citations in order to attract the funding resources that allow us to do what we are doing

Therefore, if you are a happy ORCA user, please consider citing a few of the papers listed below in the main body of your paper

In addition to the list printed below, the program has created the file mol.bibtex that contains the list in bibtex format
You can import this file easily into all common literature databanks and citation aid programs


List of essential papers. We consider these as the minimum necessary citations

  1. Neese,F.
     Software update: the ORCA program system, version 5.0
     WIRES Comput. Molec. Sci., 2022 12(1)e1606
     doi.org/10.1002/wcms.1606

List of papers to cite with high priority. The work reported in these papers was absolutely
necessary for this run to complete.
Our perspective: the developers of density functionals and basis sets usually get cited in chemistry papers
Good! But without the algorithms to do something with them, the functionals or basis sets would not do anything.
Hence, in our opinion, the algorithm design and method developments papers are equally worthy of getting cited

  1. Kollmar,C.; Sivalingam,K.; Helmich-Paris,B.; Angeli,C.; Neese,F.
     A perturbation-based super-CI approach for the orbital optimization of a CASSCF wave function
     J. Comput. Chem., 2019 40 1463-1470
     doi.org/10.1002/jcc.25801
  2. Neese,F.
     The SHARK Integral Generation and Digestion System
     J. Comp. Chem., 2022  1-16
     doi.org/10.1002/jcc.26942

List of suggested additional citations. These are papers that are important in the 'surrounding' of 
of this run, or papers that preceded the highly important papers. If you like your results we are grateful for a citation.

  1. Neese,F.
     The ORCA program system
     WIRES Comput. Molec. Sci., 2012 2(1)73-78
     doi.org/10.1002/wcms.81
  2. Neese,F.
     Software update: the ORCA program system, version 4.0
     WIRES Comput. Molec. Sci., 2018 8(1)1-6
     doi.org/10.1002/wcms.1327
  3. Neese,F.; Wennmohs,F.; Becker,U.; Riplinger,C.
     The ORCA quantum chemistry program package
     J. Chem. Phys., 2020 152 Art. No. L224108
     doi.org/10.1063/5.0004608

Timings for individual modules:

Sum of individual times         ...       33.579 sec (=   0.560 min)
GTO integral calculation        ...        0.698 sec (=   0.012 min)   2.1 %
SCF iterations                  ...        0.255 sec (=   0.004 min)   0.8 %
CASSCF iterations               ...       32.172 sec (=   0.536 min)  95.8 %
Property integrals              ...        0.455 sec (=   0.008 min)   1.4 %
                             ****ORCA TERMINATED NORMALLY****
TOTAL RUN TIME: 0 days 0 hours 0 minutes 34 seconds 47 msec
'cas_2_2.gbw' -> '/hsnfs/users/llang/calculations/ICE_SOC_SSC/diatomics/O2/def2-TZVP/check_sscunequalmult/true/cas_2_2.gbw'
'mol.CAS_DTensor_HEFF_rotated.xyz' -> '/hsnfs/users/llang/calculations/ICE_SOC_SSC/diatomics/O2/def2-TZVP/check_sscunequalmult/true/mol.CAS_DTensor_HEFF_rotated.xyz'
'mol.bibtex' -> '/hsnfs/users/llang/calculations/ICE_SOC_SSC/diatomics/O2/def2-TZVP/check_sscunequalmult/true/mol.bibtex'
'mol.densities' -> '/hsnfs/users/llang/calculations/ICE_SOC_SSC/diatomics/O2/def2-TZVP/check_sscunequalmult/true/mol.densities'
'mol.err' -> '/hsnfs/users/llang/calculations/ICE_SOC_SSC/diatomics/O2/def2-TZVP/check_sscunequalmult/true/mol.err'
'mol.gbw' -> '/hsnfs/users/llang/calculations/ICE_SOC_SSC/diatomics/O2/def2-TZVP/check_sscunequalmult/true/mol.gbw'
'mol.job' -> '/hsnfs/users/llang/calculations/ICE_SOC_SSC/diatomics/O2/def2-TZVP/check_sscunequalmult/true/mol.job'
'mol_property.txt' -> '/hsnfs/users/llang/calculations/ICE_SOC_SSC/diatomics/O2/def2-TZVP/check_sscunequalmult/true/mol_property.txt'
cp: cannot stat 'mol.asa.inp': No such file or directory
cp: missing destination file operand after '/hsnfs/users/llang/calculations/ICE_SOC_SSC/diatomics/O2/def2-TZVP/check_sscunequalmult/true/'
Try 'cp --help' for more information.
