! Job execution by suborca V 9.34 !
Job started from xe32th1, running /hsnfs/software/orca/orca_current_directory/orca_current_20220804/orca on xe30th95 in /usr/scratch/llang/mol__39382986 (/bin/bash)
Job execution start: Thu Aug  4 15:00:19 CEST 2022
Shared library path: /hsnfs/software/openmpi-4.1.0/lib:/hsnfs/software/orca/orca_current_directory/orca_current_20220804:/hsnfs/software/themis/llvm-14.0.1/lib:/csnfs/software/orca/orca_stable:/usr/users/openmpi-2.0.4/lib:/opt/intel/lib/intel64:/opt/intel/mkl/lib/intel64
SLURM Job ID is: 39382986
SLURM_JOB_NODELIST: xe30th95
Maxcore enforced by SLURM: 2048 MB
Expanded nodelist (1 nodes):
xe30th95

                                 *****************
                                 * O   R   C   A *
                                 *****************

                                            #,                                       
                                            ###                                      
                                            ####                                     
                                            #####                                    
                                            ######                                   
                                           ########,                                 
                                     ,,################,,,,,                         
                               ,,#################################,,                 
                          ,,##########################################,,             
                       ,#########################################, ''#####,          
                    ,#############################################,,   '####,        
                  ,##################################################,,,,####,       
                ,###########''''           ''''###############################       
              ,#####''   ,,,,##########,,,,          '''####'''          '####       
            ,##' ,,,,###########################,,,                        '##       
           ' ,,###''''                  '''############,,,                           
         ,,##''                                '''############,,,,        ,,,,,,###''
      ,#''                                            '''#######################'''  
     '                                                          ''''####''''         
             ,#######,   #######,   ,#######,      ##                                
            ,#'     '#,  ##    ##  ,#'     '#,    #''#        ######   ,####,        
            ##       ##  ##   ,#'  ##            #'  '#       #        #'  '#        
            ##       ##  #######   ##           ,######,      #####,   #    #        
            '#,     ,#'  ##    ##  '#,     ,#' ,#      #,         ##   #,  ,#        
             '#######'   ##     ##  '#######'  #'      '#     #####' # '####'        



                  #######################################################
                  #                        -***-                        #
                  #          Department of theory and spectroscopy      #
                  #    Directorship and core code : Frank Neese         #
                  #        Max Planck Institute fuer Kohlenforschung    #
                  #                Kaiser Wilhelm Platz 1               #
                  #                 D-45470 Muelheim/Ruhr               #
                  #                      Germany                        #
                  #                                                     #
                  #                  All rights reserved                #
                  #                        -***-                        #
                  #######################################################


                         Program Version 5.0  -  CURRENT   -
                                (GIT: $445fc7efd$)
                ($2022-08-03 23:08:20 +0200 $)

                  !                     WARNING:                         !
                  !         This is a DEVELOPMENT version                !

                         (BUILD: $Do 4. Aug 00:07:41 CEST 2022$)


 With contributions from (in alphabetic order):
   Daniel Aravena         : Magnetic Suceptibility
   Michael Atanasov       : Ab Initio Ligand Field Theory (pilot matlab implementation)
   Alexander A. Auer      : GIAO ZORA, VPT2 properties, NMR spectrum
   Ute Becker             : Parallelization
   Giovanni Bistoni       : ED, misc. LED, open-shell LED, HFLD
   Martin Brehm           : Molecular dynamics
   Dmytro Bykov           : SCF Hessian
   Vijay G. Chilkuri      : MRCI spin determinant printing, contributions to CSF-ICE
   Dipayan Datta          : RHF DLPNO-CCSD density
   Achintya Kumar Dutta   : EOM-CC, STEOM-CC
   Dmitry Ganyushin       : Spin-Orbit,Spin-Spin,Magnetic field MRCI
   Miquel Garcia          : C-PCM and meta-GGA Hessian, CCSD/C-PCM, Gaussian charge scheme
   Yang Guo               : DLPNO-NEVPT2, F12-NEVPT2, CIM, IAO-localization
   Andreas Hansen         : Spin unrestricted coupled pair/coupled cluster methods
   Benjamin Helmich-Paris : MC-RPA, TRAH-SCF, COSX integrals
   Lee Huntington         : MR-EOM, pCC
   Robert Izsak           : Overlap fitted RIJCOSX, COSX-SCS-MP3, EOM
   Marcus Kettner         : VPT2
   Christian Kollmar      : KDIIS, OOCD, Brueckner-CCSD(T), CCSD density, CASPT2, CASPT2-K, improved NEVPT2
   Simone Kossmann        : Meta GGA functionals, TD-DFT gradient, OOMP2, MP2 Hessian
   Martin Krupicka        : Initial AUTO-CI
   Lucas Lang             : DCDCAS
   Marvin Lechner         : AUTO-CI (C++ implementation), FIC-MRCC
   Dagmar Lenk            : GEPOL surface, SMD
   Dimitrios Liakos       : Extrapolation schemes; Compound Job, initial MDCI parallelization
   Dimitrios Manganas     : Further ROCIS development; embedding schemes
   Dimitrios Pantazis     : SARC Basis sets
   Anastasios Papadopoulos: AUTO-CI, single reference methods and gradients
   Taras Petrenko         : DFT Hessian,TD-DFT gradient, ASA, ECA, R-Raman, ABS, FL, XAS/XES, NRVS
   Peter Pinski           : DLPNO-MP2, DLPNO-MP2 Gradient
   Christoph Reimann      : Effective Core Potentials
   Marius Retegan         : Local ZFS, SOC
   Christoph Riplinger    : Optimizer, TS searches, QM/MM, DLPNO-CCSD(T), (RO)-DLPNO pert. Triples
   Tobias Risthaus        : Range-separated hybrids, TD-DFT gradient, RPA, STAB
   Michael Roemelt        : Original ROCIS implementation
   Masaaki Saitow         : Open-shell DLPNO-CCSD energy and density
   Barbara Sandhoefer     : DKH picture change effects
   Avijit Sen             : IP-ROCIS
   Kantharuban Sivalingam : CASSCF convergence, NEVPT2, FIC-MRCI
   Bernardo de Souza      : ESD, SOC TD-DFT
   Georgi Stoychev        : AutoAux, RI-MP2 NMR, DLPNO-MP2 response
   Willem Van den Heuvel  : Paramagnetic NMR
   Boris Wezisla          : Elementary symmetry handling
   Frank Wennmohs         : Technical directorship


 We gratefully acknowledge several colleagues who have allowed us to
 interface, adapt or use parts of their codes:
   Stefan Grimme, W. Hujo, H. Kruse, P. Pracht,  : VdW corrections, initial TS optimization,
                  C. Bannwarth, S. Ehlert          DFT functionals, gCP, sTDA/sTD-DF
   Ed Valeev, F. Pavosevic, A. Kumar             : LibInt (2-el integral package), F12 methods
   Garnet Chan, S. Sharma, J. Yang, R. Olivares  : DMRG
   Ulf Ekstrom                                   : XCFun DFT Library
   Mihaly Kallay                                 : mrcc  (arbitrary order and MRCC methods)
   Jiri Pittner, Ondrej Demel                    : Mk-CCSD
   Frank Weinhold                                : gennbo (NPA and NBO analysis)
   Christopher J. Cramer and Donald G. Truhlar   : smd solvation model
   Lars Goerigk                                  : TD-DFT with DH, B97 family of functionals
   V. Asgeirsson, H. Jonsson                     : NEB implementation
   FAccTs GmbH                                   : IRC, NEB, NEB-TS, DLPNO-Multilevel, CI-OPT
                                                   MM, QMMM, 2- and 3-layer-ONIOM, Crystal-QMMM,
                                                   LR-CPCM, SF, NACMEs, symmetry and pop. for TD-DFT,
                                                   nearIR, NL-DFT gradient (VV10), updates on ESD,
                                                   ML-optimized integration grids
   S Lehtola, MJT Oliveira, MAL Marques          : LibXC Library
   Liviu Ungur et al                             : ANISO software


 Your calculation uses the libint2 library for the computation of 2-el integrals
 For citations please refer to: http://libint.valeyev.net

 Your ORCA version has been built with support for libXC version: 5.2.2
 For citations please refer to: https://tddft.org/programs/libxc/

 This ORCA versions uses:
   CBLAS   interface :  Fast vector & matrix operations
   LAPACKE interface :  Fast linear algebra routines
   SCALAPACK package :  Parallel linear algebra routines
   Shared memory     :  Shared parallel matrices


================================================================================

----- Orbital basis set information -----
Your calculation utilizes the basis: def2-TZVP
   F. Weigend and R. Ahlrichs, Phys. Chem. Chem. Phys. 7, 3297 (2005).

================================================================================
                                        WARNINGS
                       Please study these warnings very carefully!
================================================================================


INFO   : the flag for use of the SHARK integral package has been found!

================================================================================
                                       INPUT FILE
================================================================================
NAME = mol.inp
|  1> ! def2-TZVP
|  2> 
|  3> %casscf
|  4>   nel 2
|  5>   norb 2
|  6>   mult 3,1
|  7>   nroots 1,3
|  8> end
|  9> 
| 10> *xyz 0 3
| 11> O 0.0 0.0 0.0
| 12> O 0.0 0.0 1.2058
| 13> * 
| 14> 
| 15>                          ****END OF INPUT****
================================================================================

                       ****************************
                       * Single Point Calculation *
                       ****************************

---------------------------------
CARTESIAN COORDINATES (ANGSTROEM)
---------------------------------
  O      0.000000    0.000000    0.000000
  O      0.000000    0.000000    1.205800

----------------------------
CARTESIAN COORDINATES (A.U.)
----------------------------
  NO LB      ZA    FRAG     MASS         X           Y           Z
   0 O     8.0000    0    15.999    0.000000    0.000000    0.000000
   1 O     8.0000    0    15.999    0.000000    0.000000    2.278632

--------------------------------
INTERNAL COORDINATES (ANGSTROEM)
--------------------------------
 O      0   0   0     0.000000000000     0.00000000     0.00000000
 O      1   0   0     1.205800000000     0.00000000     0.00000000

---------------------------
INTERNAL COORDINATES (A.U.)
---------------------------
 O      0   0   0     0.000000000000     0.00000000     0.00000000
 O      1   0   0     2.278631772282     0.00000000     0.00000000

---------------------
BASIS SET INFORMATION
---------------------
There are 1 groups of distinct atoms

 Group   1 Type O   : 11s6p2d1f contracted to 5s3p2d1f pattern {62111/411/11/1}

Atom   0O    basis set group =>   1
Atom   1O    basis set group =>   1
------------------------------------------------------------------------------
                           ORCA GTO INTEGRAL CALCULATION
------------------------------------------------------------------------------
------------------------------------------------------------------------------
                   ___                                                        
                  /   \      - P O W E R E D   B Y -                         
                 /     \                                                     
                 |  |  |   _    _      __       _____    __    __             
                 |  |  |  | |  | |    /  \     |  _  \  |  |  /  |          
                  \  \/   | |  | |   /    \    | | | |  |  | /  /          
                 / \  \   | |__| |  /  /\  \   | |_| |  |  |/  /          
                |  |  |   |  __  | /  /__\  \  |    /   |      \           
                |  |  |   | |  | | |   __   |  |    \   |  |\   \          
                \     /   | |  | | |  |  |  |  | |\  \  |  | \   \       
                 \___/    |_|  |_| |__|  |__|  |_| \__\ |__|  \__/        
                                                                              
                      - O R C A' S   B I G   F R I E N D -                    
                                      &                                       
                       - I N T E G R A L  F E E D E R -                       
                                                                              
 v1 FN, 2020, v2 2021                                                         
------------------------------------------------------------------------------


Reading SHARK input file mol.SHARKINP.tmp ... ok
Calculating pre-screening integrals         ... done (  0.0 sec) Dimension = 22
Organizing shell pair data                  ... done (  0.0 sec)
Shell pair information
Total number of shell pairs                 ...       253
Shell pairs after pre-screening             ...       252
Total number of primitive shell pairs       ...       864
Primitive shell pairs kept                  ...       783
          la=0 lb=0:     54 shell pairs
          la=1 lb=0:     60 shell pairs
          la=1 lb=1:     21 shell pairs
          la=2 lb=0:     40 shell pairs
          la=2 lb=1:     24 shell pairs
          la=2 lb=2:     10 shell pairs
          la=3 lb=0:     20 shell pairs
          la=3 lb=1:     12 shell pairs
          la=3 lb=2:      8 shell pairs
          la=3 lb=3:      3 shell pairs

Calculating one electron integrals          ... done (  0.2 sec)
Calculating Nuclear repulsion               ... done (  0.0 sec) ENN=     28.087030462100 Eh

SHARK setup successfully completed in   0.3 seconds

Maximum memory used throughout the entire GTOINT-calculation: 12.6 MB
-------------------------------------------------------------------------------
                                 ORCA SCF
-------------------------------------------------------------------------------

------------
SCF SETTINGS
------------
Hamiltonian:
 Ab initio Hamiltonian  Method          .... Hartree-Fock(GTOs)


General Settings:
 Integral files         IntName         .... mol
 Hartree-Fock type      HFTyp           .... CASSCF
 Total Charge           Charge          ....    0
 Multiplicity           Mult            ....    3
 Number of Electrons    NEL             ....   16
 Basis Dimension        Dim             ....   62
 Nuclear Repulsion      ENuc            ....     28.0870304621 Eh


Diagonalization of the overlap matrix:
Smallest eigenvalue                        ... 1.850e-03
Time for diagonalization                   ...    0.227 sec
Threshold for overlap eigenvalues          ... 1.000e-08
Number of eigenvalues below threshold      ... 0
Time for construction of square roots      ...    0.001 sec
Total time needed                          ...    0.228 sec

------------------------------
INITIAL GUESS: MODEL POTENTIAL
------------------------------
Model grid setup                                   ... done (   0.0 sec)
Loading Hartree-Fock densities                     ... done
Calculating cut-offs                               ... done
Initializing the effective Hamiltonian             ... done
Setting up the integral package (SHARK)            ... done
Starting the Coulomb interaction                   ... done (   0.0 sec)
Reading the grid                                   ... done
Mapping shells                                     ... done
Starting the XC term evaluation                    ... done (   0.0 sec)
Transforming the Hamiltonian                       ... done (   0.0 sec)
Diagonalizing the Hamiltonian                      ... done (   0.0 sec)
Back transforming the eigenvectors                 ... done (   0.0 sec)
Now organizing SCF variables                       ... done
                      ------------------
                      INITIAL GUESS DONE (   0.1 sec)
                      ------------------


 ... the calculation is a CASSCF calculation -I'm leaving here GOOD LUCK!!!

-------------------------------------------------------------------------------
                              ORCA-CASSCF
-------------------------------------------------------------------------------

Setting up the integral package     ... done
Building the CAS space              ... done (1 configurations for Mult=3)
Building the CAS space              ... done (3 configurations for Mult=1)

SYSTEM-SPECIFIC SETTINGS:
Number of active electrons          ...    2
Number of active orbitals           ...    2
Total number of electrons           ...   16
Total number of orbitals            ...   62

Determined orbital ranges:
   Internal       0 -    6 (   7 orbitals)
   Active         7 -    8 (   2 orbitals)
   External       9 -   61 (  53 orbitals)
Number of rotation parameters      ...    491

CI-STEP:
CI strategy                         ... General CI
Number of multiplicity blocks       ...    2
BLOCK  0 WEIGHT=   0.5000
  Multiplicity                      ...    3
  #(Configurations)                 ...    1
  #(CSFs)                           ...    1
  #(Roots)                          ...    1
    ROOT=0 WEIGHT=    0.500000

BLOCK  1 WEIGHT=   0.5000
  Multiplicity                      ...    1
  #(Configurations)                 ...    3
  #(CSFs)                           ...    3
  #(Roots)                          ...    3
    ROOT=0 WEIGHT=    0.166667
    ROOT=1 WEIGHT=    0.166667
    ROOT=2 WEIGHT=    0.166667

  PrintLevel                        ...    1
  N(GuessMat)                       ...       512
  MaxDim(CI)                        ...        10
  MaxIter(CI)                       ...        64
  Energy Tolerance CI               ...  1.00e-08
  Residual Tolerance CI             ...  1.00e-08
  Shift(CI)                         ...  1.00e-04

INTEGRAL-TRANSFORMATION-STEP:
  Algorithm                         ... EXACT

ORBITAL-IMPROVEMENT-STEP:
  Algorithm                         ... SuperCI(PT)
  Default Parametrization           ... CAYLEY
  Act-Act rotations                 ... depends on algorithm used

  Note: SuperCI(PT) will ignore FreezeIE, FreezeAct and FreezeGrad. In general Default settings are encouraged.
        In conjunction with ShiftUp, ShiftDn or GradScaling the performance of SuperCI(PT) is less optimal.  

  MaxRot                            ... 2.00e-01 
  Max. no of vectors (DIIS)         ... 15
  DThresh (cut-off) metric          ... 1.00e-06
  Switch step at gradient           ...  3.00e-02 
  Switch step at iteration          ...        50   
  Switch step to                    ... SuperCI(PT)    

SCF-SETTINGS:
  Incremental                       ... on
  RIJCOSX approximation             ... off
  RI-JK approximation               ... off
  AO integral handling              ... DIRECT
  Integral Neglect Thresh           ...  1.00e-10
  Primitive cutoff TCut             ...  1.00e-11
  Energy convergence tolerance      ...  1.00e-07
  Orbital gradient convergence      ...  1.00e-03
  Max. number of iterations         ...        75  


FINAL ORBITALS:
  Active   Orbitals                 ... natural 
  Internal Orbitals                 ... canonical 
  External Orbitals                 ... canonical 

------------------
CAS-SCF ITERATIONS
------------------


MACRO-ITERATION   1: 
   --- Inactive Energy E0 = -148.03831584 Eh
CI-ITERATION   0: 
  -149.633757063   0.000000000000 (    0.00)
   CI-PROBLEM SOLVED
   DENSITIES MADE
CI-ITERATION   0: 
  -149.587558254   0.000000000000 (    0.00)
  -149.587557347   0.000000000000
  -149.541358538   0.000000000000
   CI-PROBLEM SOLVED
   DENSITIES MADE

                 <<<<<<<<<<<<<<<<<<INITIAL CI STATE CHECK>>>>>>>>>>>>>>>>>>

BLOCK  0 MULT= 3 NROOTS= 1 
ROOT   0:  E=    -149.6337570629 Eh
      1.00000 [     0]: 11

BLOCK  1 MULT= 1 NROOTS= 3 
ROOT   0:  E=    -149.5875582538 Eh
      0.50000 [     0]: 20
      0.50000 [     2]: 02
ROOT   1:  E=    -149.5875573468 Eh  0.000 eV      0.2 cm**-1
      1.00000 [     1]: 11
ROOT   2:  E=    -149.5413585377 Eh  1.257 eV  10139.7 cm**-1
      0.50000 [     2]: 02
      0.50000 [     0]: 20

                 <<<<<<<<<<<<<<<<<<INITIAL CI STATE CHECK>>>>>>>>>>>>>>>>>>

   E(CAS)=  -149.602957554 Eh DE=    0.000000e+00
   --- Energy gap subspaces: Ext-Act = 0.611   Act-Int = 0.498
   N(occ)=  1.00000 1.00000
   ||g|| =     1.547797e+00 Max(G)=    6.890886e-01 Rot=60,0
   --- Orbital Update [SuperCI(PT)]
   --- Canonicalize Internal Space
   --- Canonicalize External Space
   --- SX_PT (Skipped TA=0 IT=0): ||X|| =      0.058460431 Max(X)(34,4) =      0.023020836 
   --- SFit(Active Orbitals)

MACRO-ITERATION   2: 
   --- Inactive Energy E0 = -148.04536410 Eh
CI-ITERATION   0: 
  -149.659789100   0.000000000000 (    0.00)
   CI-PROBLEM SOLVED
   DENSITIES MADE
CI-ITERATION   0: 
  -149.613059338   0.000000000000 (    0.00)
  -149.613059193   0.000000000000
  -149.566329432   0.000000000000
   CI-PROBLEM SOLVED
   DENSITIES MADE
   E(CAS)=  -149.628635877 Eh DE=   -2.567832e-02
   --- Energy gap subspaces: Ext-Act = 0.617   Act-Int = 0.494
   N(occ)=  1.00000 1.00000
   ||g|| =     1.235572e-01 Max(G)=    3.743875e-02 Rot=34,0
   --- Orbital Update [SuperCI(PT)]
   --- Canonicalize Internal Space
   --- Canonicalize External Space
   --- SX_PT (Skipped TA=0 IT=0): ||X|| =      0.012611228 Max(X)(15,8) =     -0.006038654 
   --- SFit(Active Orbitals)

MACRO-ITERATION   3: 
   --- Inactive Energy E0 = -148.05448125 Eh
CI-ITERATION   0: 
  -149.660431000   0.000000000000 (    0.00)
   CI-PROBLEM SOLVED
   DENSITIES MADE
CI-ITERATION   0: 
  -149.613412682   0.000000000000 (    0.00)
  -149.613412660   0.000000000000
  -149.566394343   0.000000000000
   CI-PROBLEM SOLVED
   DENSITIES MADE
   E(CAS)=  -149.629085447 Eh DE=   -4.495705e-04
   --- Energy gap subspaces: Ext-Act = 0.615   Act-Int = 0.495
   N(occ)=  1.00000 1.00000
   ||g|| =     2.099741e-02 Max(G)=    9.420238e-03 Rot=34,4
   --- Orbital Update [SuperCI(PT)]
   --- Canonicalize Internal Space
   --- Canonicalize External Space
   --- SX_PT (Skipped TA=0 IT=0): ||X|| =      0.002113112 Max(X)(11,5) =      0.000779002 
   --- SFit(Active Orbitals)

MACRO-ITERATION   4: 
   --- Inactive Energy E0 = -148.05260465 Eh
CI-ITERATION   0: 
  -149.660462611   0.000000000000 (    0.00)
   CI-PROBLEM SOLVED
   DENSITIES MADE
CI-ITERATION   0: 
  -149.613425200   0.000000000000 (    0.00)
  -149.613425199   0.000000000000
  -149.566387787   0.000000000000
   CI-PROBLEM SOLVED
   DENSITIES MADE
   E(CAS)=  -149.629104337 Eh DE=   -1.888920e-05
   --- Energy gap subspaces: Ext-Act = 0.615   Act-Int = 0.495
   N(occ)=  1.00000 1.00000
   ||g|| =     3.950943e-03 Max(G)=    1.121684e-03 Rot=10,4
   --- Orbital Update [SuperCI(PT)]
   --- Canonicalize Internal Space
   --- Canonicalize External Space
   --- SX_PT (Skipped TA=0 IT=0): ||X|| =      0.000556696 Max(X)(15,8) =      0.000277704 
   --- SFit(Active Orbitals)

MACRO-ITERATION   5: 
   --- Inactive Energy E0 = -148.05304329 Eh
CI-ITERATION   0: 
  -149.660473063   0.000000000000 (    0.00)
   CI-PROBLEM SOLVED
   DENSITIES MADE
CI-ITERATION   0: 
  -149.613421089   0.000000000000 (    0.00)
  -149.613421089   0.000000000000
  -149.566369115   0.000000000000
   CI-PROBLEM SOLVED
   DENSITIES MADE
   E(CAS)=  -149.629105080 Eh DE=   -7.437820e-07
   --- Energy gap subspaces: Ext-Act = 0.615   Act-Int = 0.495
   N(occ)=  1.00000 1.00000
   ||g|| =     6.459084e-04 Max(G)=    2.533440e-04 Rot=11,5
                     ---- THE CAS-SCF GRADIENT HAS CONVERGED ----
                            --- FINALIZING ORBITALS ---
                    ---- DOING ONE FINAL ITERATION FOR PRINTING ----
   --- Forming Natural Orbitals
   --- Canonicalize Internal Space
   --- Canonicalize External Space

MACRO-ITERATION   6: 
   --- Inactive Energy E0 = -148.05304329 Eh
   --- All densities will be recomputed
CI-ITERATION   0: 
  -149.660473063   0.000000000000 (    0.00)
   CI-PROBLEM SOLVED
   DENSITIES MADE
CI-ITERATION   0: 
  -149.613421090   0.000000000000 (    0.00)
  -149.613421089   0.000000000000
  -149.566369115   0.000000000000
   CI-PROBLEM SOLVED
   DENSITIES MADE
   E(CAS)=  -149.629105080 Eh DE=   -7.358381e-11
   --- Energy gap subspaces: Ext-Act = 0.569   Act-Int = 0.495
   N(occ)=  1.00000 1.00000
   ||g|| =     6.459084e-04 Max(G)=    2.119148e-04 Rot=11,5
--------------
CASSCF RESULTS
--------------

Final CASSCF energy       : -149.629105080 Eh   -4071.6149 eV

----------------
ORBITAL ENERGIES
----------------

  NO   OCC          E(Eh)            E(eV) 
   0   2.0000     -20.734545      -564.2157 
   1   2.0000     -20.733582      -564.1894 
   2   2.0000      -1.653931       -45.0057 
   3   2.0000      -1.100137       -29.9363 
   4   2.0000      -0.738399       -20.0929 
   5   2.0000      -0.708484       -19.2788 
   6   2.0000      -0.708484       -19.2788 
   7   1.0000      -0.213263        -5.8032 
   8   1.0000      -0.213263        -5.8032 
   9   0.0000       0.356027         9.6880 
  10   0.0000       0.477744        13.0001 
  11   0.0000       0.534671        14.5491 
  12   0.0000       0.534671        14.5491 
  13   0.0000       0.575284        15.6543 
  14   0.0000       0.644740        17.5443 
  15   0.0000       0.644740        17.5443 
  16   0.0000       0.669535        18.2190 
  17   0.0000       0.909923        24.7603 
  18   0.0000       1.471277        40.0355 
  19   0.0000       1.471277        40.0355 
  20   0.0000       1.564556        42.5737 
  21   0.0000       1.564556        42.5737 
  22   0.0000       1.905367        51.8477 
  23   0.0000       1.905367        51.8477 
  24   0.0000       2.111311        57.4517 
  25   0.0000       2.409926        65.5774 
  26   0.0000       2.409926        65.5774 
  27   0.0000       2.440008        66.3960 
  28   0.0000       2.802467        76.2590 
  29   0.0000       2.802467        76.2590 
  30   0.0000       2.868241        78.0488 
  31   0.0000       3.101224        84.3886 
  32   0.0000       3.146588        85.6230 
  33   0.0000       3.146588        85.6230 
  34   0.0000       3.293736        89.6271 
  35   0.0000       4.644016       126.3701 
  36   0.0000       4.992653       135.8570 
  37   0.0000       4.992653       135.8570 
  38   0.0000       5.041545       137.1874 
  39   0.0000       5.041545       137.1874 
  40   0.0000       5.338615       145.2711 
  41   0.0000       5.338615       145.2711 
  42   0.0000       5.434763       147.8874 
  43   0.0000       5.590241       152.1182 
  44   0.0000       5.590241       152.1182 
  45   0.0000       6.144758       167.2074 
  46   0.0000       6.144758       167.2074 
  47   0.0000       6.546371       178.1358 
  48   0.0000       6.546371       178.1358 
  49   0.0000       6.757700       183.8864 
  50   0.0000       6.757700       183.8864 
  51   0.0000       6.790680       184.7838 
  52   0.0000       6.790680       184.7838 
  53   0.0000       6.843765       186.2283 
  54   0.0000       6.903251       187.8470 
  55   0.0000       6.903251       187.8470 
  56   0.0000       7.672920       208.7908 
  57   0.0000       7.672920       208.7908 
  58   0.0000       7.947193       216.2541 
  59   0.0000       9.147346       248.9119 
  60   0.0000      44.490601      1210.6508 
  61   0.0000      45.029052      1225.3028 


---------------------------------------------
CAS-SCF STATES FOR BLOCK  0 MULT= 3 NROOTS= 1
---------------------------------------------

ROOT   0:  E=    -149.6604730631 Eh
      1.00000 [     0]: 11


---------------------------------------------
CAS-SCF STATES FOR BLOCK  1 MULT= 1 NROOTS= 3
---------------------------------------------

ROOT   0:  E=    -149.6134210895 Eh
      1.00000 [     1]: 11
ROOT   1:  E=    -149.6134210886 Eh  0.000 eV      0.0 cm**-1
      0.50000 [     2]: 02
      0.50000 [     0]: 20
ROOT   2:  E=    -149.5663691151 Eh  1.280 eV  10326.7 cm**-1
      0.50000 [     0]: 20
      0.50000 [     2]: 02


-----------------------------
SA-CASSCF TRANSITION ENERGIES
------------------------------

LOWEST ROOT (ROOT 0 ,MULT 3) =   -149.660473063 Eh -4072.469 eV

STATE   ROOT MULT  DE/a.u.    DE/eV    DE/cm**-1
   1:    0    1   0.047052     1.280  10326.7
   2:    1    1   0.047052     1.280  10326.7
   3:    2    1   0.094104     2.561  20653.4


--------------
DENSITY MATRIX
--------------

                  0          1    
      0       1.000000   0.000000
      1       0.000000   1.000000
Trace of the electron density:  2.000000
Extracting Spin-Density from 2-RDM (MULT=3) ... done
Extracting Spin-Density from 2-RDM (MULT=1) ... done

-------------------
SPIN-DENSITY MATRIX
-------------------

                  0          1    
      0       0.500000   0.000000
      1       0.000000   0.500000
Trace of the spin density:  1.000000

-----------------
ENERGY COMPONENTS
-----------------

One electron energy          :   -261.675854441 Eh       -7120.5620 eV
Two electron energy          :     83.959718898 Eh        2284.6601 eV
Nuclear repulsion energy     :     28.087030462 Eh         764.2870 eV
                               ----------------
                                 -149.629105080

Kinetic energy               :    149.388277543 Eh        4065.0617 eV
Potential energy             :   -299.017382624 Eh       -8136.6766 eV
Virial ratio                 :     -2.001612091 
                               ----------------
                                 -149.629105080

Core energy                  :   -148.053043290 Eh    -4028.7281 eV


----------------------------
LOEWDIN ORBITAL-COMPOSITIONS
----------------------------

                      0         1         2         3         4         5   
                 -20.73455 -20.73358  -1.65393  -1.10014  -0.73840  -0.70848
                   2.00000   2.00000   2.00000   2.00000   2.00000   2.00000
                  --------  --------  --------  --------  --------  --------
 0 O  s              49.9      49.9      39.4      33.2       9.2       0.0
 0 O  pz              0.0       0.0       8.8      15.3      40.4       0.0
 0 O  px              0.0       0.0       0.0       0.0       0.0      48.7
 0 O  dz2             0.0       0.0       1.6       1.4       0.4       0.0
 0 O  dxz             0.0       0.0       0.0       0.0       0.0       1.2
 0 O  f0              0.0       0.0       0.2       0.1       0.1       0.0
 0 O  f+1             0.0       0.0       0.0       0.0       0.0       0.1
 1 O  s              49.9      49.9      39.4      33.2       9.2       0.0
 1 O  pz              0.0       0.0       8.8      15.3      40.4       0.0
 1 O  px              0.0       0.0       0.0       0.0       0.0      48.7
 1 O  dz2             0.0       0.0       1.6       1.4       0.4       0.0
 1 O  dxz             0.0       0.0       0.0       0.0       0.0       1.2
 1 O  f0              0.0       0.0       0.2       0.1       0.1       0.0
 1 O  f+1             0.0       0.0       0.0       0.0       0.0       0.1

                      6         7         8         9        10        11   
                  -0.70848  -0.21326  -0.21326   0.35603   0.47774   0.53467
                   2.00000   1.00000   1.00000   0.00000   0.00000   0.00000
                  --------  --------  --------  --------  --------  --------
 0 O  s               0.0       0.0       0.0       7.2      45.9       0.0
 0 O  pz              0.0       0.0       0.0      33.6       2.4       0.0
 0 O  px              0.0       0.0      47.6       0.0       0.0      34.7
 0 O  py             48.7      47.6       0.0       0.0       0.0      14.6
 0 O  dz2             0.0       0.0       0.0       8.9       1.7       0.0
 0 O  dxz             0.0       0.0       2.1       0.0       0.0       0.4
 0 O  dyz             1.2       2.1       0.0       0.0       0.0       0.2
 0 O  f0              0.0       0.0       0.0       0.3       0.1       0.0
 0 O  f+1             0.0       0.0       0.3       0.0       0.0       0.1
 0 O  f-1             0.1       0.3       0.0       0.0       0.0       0.0
 1 O  s               0.0       0.0       0.0       7.2      45.9       0.0
 1 O  pz              0.0       0.0       0.0      33.6       2.4       0.0
 1 O  px              0.0       0.0      47.6       0.0       0.0      34.7
 1 O  py             48.7      47.6       0.0       0.0       0.0      14.6
 1 O  dz2             0.0       0.0       0.0       8.9       1.7       0.0
 1 O  dxz             0.0       0.0       2.1       0.0       0.0       0.4
 1 O  dyz             1.2       2.1       0.0       0.0       0.0       0.2
 1 O  f0              0.0       0.0       0.0       0.3       0.1       0.0
 1 O  f+1             0.0       0.0       0.3       0.0       0.0       0.1
 1 O  f-1             0.1       0.3       0.0       0.0       0.0       0.0

                     12        13        14        15        16        17   
                   0.53467   0.57528   0.64474   0.64474   0.66953   0.90992
                   0.00000   0.00000   0.00000   0.00000   0.00000   0.00000
                  --------  --------  --------  --------  --------  --------
 0 O  s               0.0       1.0       0.0       0.0       1.7      44.7
 0 O  pz              0.0      44.1       0.0       0.0      40.6       2.2
 0 O  px             14.6       0.0       0.3      49.0       0.0       0.0
 0 O  py             34.7       0.0      49.0       0.3       0.0       0.0
 0 O  dz2             0.0       4.7       0.0       0.0       7.2       2.6
 0 O  dxz             0.2       0.0       0.0       0.6       0.0       0.0
 0 O  dyz             0.4       0.0       0.6       0.0       0.0       0.0
 0 O  f0              0.0       0.2       0.0       0.0       0.6       0.6
 0 O  f-1             0.1       0.0       0.1       0.0       0.0       0.0
 1 O  s               0.0       1.0       0.0       0.0       1.7      44.7
 1 O  pz              0.0      44.1       0.0       0.0      40.6       2.2
 1 O  px             14.6       0.0       0.3      49.0       0.0       0.0
 1 O  py             34.7       0.0      49.0       0.3       0.0       0.0
 1 O  dz2             0.0       4.7       0.0       0.0       7.2       2.6
 1 O  dxz             0.2       0.0       0.0       0.6       0.0       0.0
 1 O  dyz             0.4       0.0       0.6       0.0       0.0       0.0
 1 O  f0              0.0       0.2       0.0       0.0       0.6       0.6
 1 O  f-1             0.1       0.0       0.1       0.0       0.0       0.0

                     18        19        20        21        22        23   
                   1.47128   1.47128   1.56456   1.56456   1.90537   1.90537
                   0.00000   0.00000   0.00000   0.00000   0.00000   0.00000
                  --------  --------  --------  --------  --------  --------
 0 O  px              0.0       0.0       0.5       1.4       0.0       0.0
 0 O  py              0.0       0.0       1.4       0.5       0.0       0.0
 0 O  dxz             0.0       0.0      13.4      34.6       0.0       0.0
 0 O  dyz             0.0       0.0      34.6      13.4       0.0       0.0
 0 O  dx2y2          49.7       0.0       0.0       0.0      49.6       0.0
 0 O  dxy             0.0      49.7       0.0       0.0       0.0      49.6
 0 O  f+2             0.3       0.0       0.0       0.0       0.4       0.0
 0 O  f-2             0.0       0.3       0.0       0.0       0.0       0.4
 1 O  px              0.0       0.0       0.5       1.4       0.0       0.0
 1 O  py              0.0       0.0       1.4       0.5       0.0       0.0
 1 O  dxz             0.0       0.0      13.4      34.6       0.0       0.0
 1 O  dyz             0.0       0.0      34.6      13.4       0.0       0.0
 1 O  dx2y2          49.7       0.0       0.0       0.0      49.6       0.0
 1 O  dxy             0.0      49.7       0.0       0.0       0.0      49.6
 1 O  f+2             0.3       0.0       0.0       0.0       0.4       0.0
 1 O  f-2             0.0       0.3       0.0       0.0       0.0       0.4

                     24        25        26        27        28        29   
                   2.11131   2.40993   2.40993   2.44001   2.80247   2.80247
                   0.00000   0.00000   0.00000   0.00000   0.00000   0.00000
                  --------  --------  --------  --------  --------  --------
 0 O  s               4.6       0.0       0.0       5.3       0.0       0.0
 0 O  pz              9.4       0.0       0.0      17.1       0.0       0.0
 0 O  px              0.0       0.1       7.6       0.0      36.1      13.7
 0 O  py              0.0       7.6       0.1       0.0      13.7      36.1
 0 O  dz2            36.0       0.0       0.0      24.7       0.0       0.0
 0 O  dxz             0.0       0.5      39.0       0.0       0.1       0.0
 0 O  dyz             0.0      39.0       0.5       0.0       0.0       0.1
 0 O  f0              0.0       0.0       0.0       2.8       0.0       0.0
 0 O  f+1             0.0       0.0       2.8       0.0       0.0       0.0
 0 O  f-1             0.0       2.8       0.0       0.0       0.0       0.0
 1 O  s               4.6       0.0       0.0       5.3       0.0       0.0
 1 O  pz              9.4       0.0       0.0      17.1       0.0       0.0
 1 O  px              0.0       0.1       7.6       0.0      36.1      13.7
 1 O  py              0.0       7.6       0.1       0.0      13.7      36.1
 1 O  dz2            36.0       0.0       0.0      24.7       0.0       0.0
 1 O  dxz             0.0       0.5      39.0       0.0       0.1       0.0
 1 O  dyz             0.0      39.0       0.5       0.0       0.0       0.1
 1 O  f0              0.0       0.0       0.0       2.8       0.0       0.0
 1 O  f+1             0.0       0.0       2.8       0.0       0.0       0.0
 1 O  f-1             0.0       2.8       0.0       0.0       0.0       0.0

                     30        31        32        33        34        35   
                   2.86824   3.10122   3.14659   3.14659   3.29374   4.64402
                   0.00000   0.00000   0.00000   0.00000   0.00000   0.00000
                  --------  --------  --------  --------  --------  --------
 0 O  s              40.7      28.8       0.0       0.0       6.0      13.1
 0 O  pz              8.9      17.4       0.0       0.0      31.3      10.6
 0 O  px              0.0       0.0       0.1      41.9       0.0       0.0
 0 O  py              0.0       0.0      41.9       0.1       0.0       0.0
 0 O  dz2             0.1       3.3       0.0       0.0       5.8       0.0
 0 O  dxz             0.0       0.0       0.0       3.4       0.0       0.0
 0 O  dyz             0.0       0.0       3.4       0.0       0.0       0.0
 0 O  f0              0.3       0.5       0.0       0.0       6.9      26.2
 0 O  f+1             0.0       0.0       0.0       4.6       0.0       0.0
 0 O  f-1             0.0       0.0       4.6       0.0       0.0       0.0
 1 O  s              40.7      28.8       0.0       0.0       6.0      13.1
 1 O  pz              8.9      17.4       0.0       0.0      31.3      10.6
 1 O  px              0.0       0.0       0.1      41.9       0.0       0.0
 1 O  py              0.0       0.0      41.9       0.1       0.0       0.0
 1 O  dz2             0.1       3.3       0.0       0.0       5.8       0.0
 1 O  dxz             0.0       0.0       0.0       3.4       0.0       0.0
 1 O  dyz             0.0       0.0       3.4       0.0       0.0       0.0
 1 O  f0              0.3       0.5       0.0       0.0       6.9      26.2
 1 O  f+1             0.0       0.0       0.0       4.6       0.0       0.0
 1 O  f-1             0.0       0.0       4.6       0.0       0.0       0.0

                     36        37        38        39        40        41   
                   4.99265   4.99265   5.04154   5.04154   5.33862   5.33862
                   0.00000   0.00000   0.00000   0.00000   0.00000   0.00000
                  --------  --------  --------  --------  --------  --------
 0 O  px              0.0       0.0       0.1       0.1       0.0       0.0
 0 O  py              0.0       0.0       0.1       0.1       0.0       0.0
 0 O  dxz             0.0       0.0       3.3       1.2       0.0       0.0
 0 O  dyz             0.0       0.0       1.2       3.3       0.0       0.0
 0 O  dx2y2           0.3       0.0       0.0       0.0       0.0       0.0
 0 O  dxy             0.0       0.3       0.0       0.0       0.0       0.0
 0 O  f+1             0.0       0.0      33.0      12.2       0.0       0.0
 0 O  f-1             0.0       0.0      12.2      33.0       0.0       0.0
 0 O  f+2            49.7       0.0       0.0       0.0       0.0       0.0
 0 O  f-2             0.0      49.7       0.0       0.0       0.0       0.0
 0 O  f+3             0.0       0.0       0.0       0.0       0.7      49.3
 0 O  f-3             0.0       0.0       0.0       0.0      49.3       0.7
 1 O  px              0.0       0.0       0.1       0.1       0.0       0.0
 1 O  py              0.0       0.0       0.1       0.1       0.0       0.0
 1 O  dxz             0.0       0.0       3.3       1.2       0.0       0.0
 1 O  dyz             0.0       0.0       1.2       3.3       0.0       0.0
 1 O  dx2y2           0.3       0.0       0.0       0.0       0.0       0.0
 1 O  dxy             0.0       0.3       0.0       0.0       0.0       0.0
 1 O  f+1             0.0       0.0      33.0      12.2       0.0       0.0
 1 O  f-1             0.0       0.0      12.2      33.0       0.0       0.0
 1 O  f+2            49.7       0.0       0.0       0.0       0.0       0.0
 1 O  f-2             0.0      49.7       0.0       0.0       0.0       0.0
 1 O  f+3             0.0       0.0       0.0       0.0       0.7      49.3
 1 O  f-3             0.0       0.0       0.0       0.0      49.3       0.7

                     42        43        44        45        46        47   
                   5.43476   5.59024   5.59024   6.14476   6.14476   6.54637
                   0.00000   0.00000   0.00000   0.00000   0.00000   0.00000
                  --------  --------  --------  --------  --------  --------
 0 O  s               1.5       0.0       0.0       0.0       0.0       0.0
 0 O  pz              2.4       0.0       0.0       0.0       0.0       0.0
 0 O  dz2            16.7       0.0       0.0       0.0       0.0       0.0
 0 O  dx2y2           0.0       0.0       0.0       5.9       0.0      50.0
 0 O  dxy             0.0       0.0       0.0       0.0       5.9       0.0
 0 O  f0             29.4       0.0       0.0       0.0       0.0       0.0
 0 O  f+2             0.0       0.0       0.0      44.1       0.0       0.0
 0 O  f-2             0.0       0.0       0.0       0.0      44.1       0.0
 0 O  f+3             0.0       7.3      42.7       0.0       0.0       0.0
 0 O  f-3             0.0      42.7       7.3       0.0       0.0       0.0
 1 O  s               1.5       0.0       0.0       0.0       0.0       0.0
 1 O  pz              2.4       0.0       0.0       0.0       0.0       0.0
 1 O  dz2            16.7       0.0       0.0       0.0       0.0       0.0
 1 O  dx2y2           0.0       0.0       0.0       5.9       0.0      50.0
 1 O  dxy             0.0       0.0       0.0       0.0       5.9       0.0
 1 O  f0             29.4       0.0       0.0       0.0       0.0       0.0
 1 O  f+2             0.0       0.0       0.0      44.1       0.0       0.0
 1 O  f-2             0.0       0.0       0.0       0.0      44.1       0.0
 1 O  f+3             0.0       7.3      42.7       0.0       0.0       0.0
 1 O  f-3             0.0      42.7       7.3       0.0       0.0       0.0

                     48        49        50        51        52        53   
                   6.54637   6.75770   6.75770   6.79068   6.79068   6.84376
                   0.00000   0.00000   0.00000   0.00000   0.00000   0.00000
                  --------  --------  --------  --------  --------  --------
 0 O  s               0.0       0.0       0.0       0.0       0.0       2.4
 0 O  pz              0.0       0.0       0.0       0.0       0.0       1.6
 0 O  px              0.0       0.0       0.0       0.0       0.1       0.0
 0 O  py              0.0       0.0       0.0       0.1       0.0       0.0
 0 O  dz2             0.0       0.0       0.0       0.0       0.0      43.8
 0 O  dxz             0.0       0.0       0.0       0.8      46.4       0.0
 0 O  dyz             0.0       0.0       0.0      46.4       0.8       0.0
 0 O  dx2y2           0.0      44.6       0.0       0.0       0.0       0.0
 0 O  dxy            50.0       0.0      44.6       0.0       0.0       0.0
 0 O  f0              0.0       0.0       0.0       0.0       0.0       2.2
 0 O  f+1             0.0       0.0       0.0       0.0       2.6       0.0
 0 O  f-1             0.0       0.0       0.0       2.6       0.0       0.0
 0 O  f+2             0.0       5.4       0.0       0.0       0.0       0.0
 0 O  f-2             0.0       0.0       5.4       0.0       0.0       0.0
 1 O  s               0.0       0.0       0.0       0.0       0.0       2.4
 1 O  pz              0.0       0.0       0.0       0.0       0.0       1.6
 1 O  px              0.0       0.0       0.0       0.0       0.1       0.0
 1 O  py              0.0       0.0       0.0       0.1       0.0       0.0
 1 O  dz2             0.0       0.0       0.0       0.0       0.0      43.8
 1 O  dxz             0.0       0.0       0.0       0.8      46.4       0.0
 1 O  dyz             0.0       0.0       0.0      46.4       0.8       0.0
 1 O  dx2y2           0.0      44.6       0.0       0.0       0.0       0.0
 1 O  dxy            50.0       0.0      44.6       0.0       0.0       0.0
 1 O  f0              0.0       0.0       0.0       0.0       0.0       2.2
 1 O  f+1             0.0       0.0       0.0       0.0       2.6       0.0
 1 O  f-1             0.0       0.0       0.0       2.6       0.0       0.0
 1 O  f+2             0.0       5.4       0.0       0.0       0.0       0.0
 1 O  f-2             0.0       0.0       5.4       0.0       0.0       0.0

                     54        55        56        57        58        59   
                   6.90325   6.90325   7.67292   7.67292   7.94719   9.14735
                   0.00000   0.00000   0.00000   0.00000   0.00000   0.00000
                  --------  --------  --------  --------  --------  --------
 0 O  s               0.0       0.0       0.0       0.0       1.8      13.7
 0 O  pz              0.0       0.0       0.0       0.0       2.3      11.6
 0 O  px              0.0       0.0       0.0       3.4       0.0       0.0
 0 O  py              0.0       0.0       3.4       0.0       0.0       0.0
 0 O  dz2             0.0       0.0       0.0       0.0      33.1       8.0
 0 O  dxz            33.9      11.7       0.0       7.0       0.0       0.0
 0 O  dyz            11.7      33.9       7.0       0.0       0.0       0.0
 0 O  f0              0.0       0.0       0.0       0.0      12.8      16.7
 0 O  f+1             3.3       1.1       0.1      39.4       0.0       0.0
 0 O  f-1             1.1       3.3      39.4       0.1       0.0       0.0
 1 O  s               0.0       0.0       0.0       0.0       1.8      13.7
 1 O  pz              0.0       0.0       0.0       0.0       2.3      11.6
 1 O  px              0.0       0.0       0.0       3.4       0.0       0.0
 1 O  py              0.0       0.0       3.4       0.0       0.0       0.0
 1 O  dz2             0.0       0.0       0.0       0.0      33.1       8.0
 1 O  dxz            33.9      11.7       0.0       7.0       0.0       0.0
 1 O  dyz            11.7      33.9       7.0       0.0       0.0       0.0
 1 O  f0              0.0       0.0       0.0       0.0      12.8      16.7
 1 O  f+1             3.3       1.1       0.1      39.4       0.0       0.0
 1 O  f-1             1.1       3.3      39.4       0.1       0.0       0.0

                     60        61   
                  44.49060  45.02905
                   0.00000   0.00000
                  --------  --------
 0 O  s              50.0      50.0
 1 O  s              50.0      50.0

----------------------------
LOEWDIN REDUCED ACTIVE MOs  
----------------------------

                      6         7         8         9        10        11   
                  -0.70848  -0.21326  -0.21326   0.35603   0.47774   0.53467
                   2.00000   1.00000   1.00000   0.00000   0.00000   0.00000
                  --------  --------  --------  --------  --------  --------
 0 O  s               0.0       0.0       0.0       7.2      45.9       0.0
 0 O  pz              0.0       0.0       0.0      33.6       2.4       0.0
 0 O  px              0.0       0.0      47.6       0.0       0.0      34.7
 0 O  py             48.7      47.6       0.0       0.0       0.0      14.6
 0 O  dz2             0.0       0.0       0.0       8.9       1.7       0.0
 1 O  s               0.0       0.0       0.0       7.2      45.9       0.0
 1 O  pz              0.0       0.0       0.0      33.6       2.4       0.0
 1 O  px              0.0       0.0      47.6       0.0       0.0      34.7
 1 O  py             48.7      47.6       0.0       0.0       0.0      14.6
 1 O  dz2             0.0       0.0       0.0       8.9       1.7       0.0

------------------------------------------------------------------------------
                           ORCA POPULATION ANALYSIS
------------------------------------------------------------------------------
Input electron density              ... mol.scfp
Input spin density                  ... mol.scfr
BaseName (.gbw .S,...)              ... mol

                    ********************************
                    * MULLIKEN POPULATION ANALYSIS *
                    ********************************

------------------------------------------
MULLIKEN ATOMIC CHARGES AND SPIN DENSITIES
------------------------------------------
   0 O :    0.000000    0.500000
   1 O :   -0.000000    0.500000
Sum of atomic charges       :   -0.0000000
Sum of atomic spin densities:    1.0000000

---------------------------------------------------
MULLIKEN REDUCED ORBITAL CHARGES AND SPIN DENSITIES
---------------------------------------------------
CHARGE
  0 O s       :     3.900524  s :     3.900524
      pz      :     1.076252  p :     4.039334
      px      :     1.481541
      py      :     1.481541
      dz2     :     0.020985  d :     0.055125
      dxz     :     0.017070
      dyz     :     0.017070
      dx2y2   :     0.000000
      dxy     :     0.000000
      f0      :     0.002238  f :     0.005017
      f+1     :     0.001390
      f-1     :     0.001390
      f+2     :     0.000000
      f-2     :     0.000000
      f+3     :     0.000000
      f-3     :     0.000000
  1 O s       :     3.900524  s :     3.900524
      pz      :     1.076252  p :     4.039334
      px      :     1.481541
      py      :     1.481541
      dz2     :     0.020985  d :     0.055125
      dxz     :     0.017070
      dyz     :     0.017070
      dx2y2   :     0.000000
      dxy     :     0.000000
      f0      :     0.002238  f :     0.005017
      f+1     :     0.001390
      f-1     :     0.001390
      f+2     :     0.000000
      f-2     :     0.000000
      f+3     :     0.000000
      f-3     :     0.000000

SPIN
  0 O s       :     0.000000  s :     0.000000
      pz      :     0.000000  p :     0.498296
      px      :     0.249148
      py      :     0.249148
      dz2     :     0.000000  d :     0.001559
      dxz     :     0.000780
      dyz     :     0.000780
      dx2y2   :     0.000000
      dxy     :     0.000000
      f0      :     0.000000  f :     0.000145
      f+1     :     0.000072
      f-1     :     0.000072
      f+2     :     0.000000
      f-2     :     0.000000
      f+3     :     0.000000
      f-3     :     0.000000
  1 O s       :     0.000000  s :     0.000000
      pz      :     0.000000  p :     0.498296
      px      :     0.249148
      py      :     0.249148
      dz2     :     0.000000  d :     0.001559
      dxz     :     0.000780
      dyz     :     0.000780
      dx2y2   :     0.000000
      dxy     :     0.000000
      f0      :     0.000000  f :     0.000145
      f+1     :     0.000072
      f-1     :     0.000072
      f+2     :     0.000000
      f-2     :     0.000000
      f+3     :     0.000000
      f-3     :     0.000000


                     *******************************
                     * LOEWDIN POPULATION ANALYSIS *
                     *******************************

-----------------------------------------
LOEWDIN ATOMIC CHARGES AND SPIN DENSITIES
-----------------------------------------
   0 O :    0.000000    0.500000
   1 O :   -0.000000    0.500000

--------------------------------------------------
LOEWDIN REDUCED ORBITAL CHARGES AND SPIN DENSITIES
--------------------------------------------------
CHARGE
  0 O s       :     3.633044  s :     3.633044
      pz      :     1.290868  p :     4.190284
      px      :     1.449708
      py      :     1.449708
      dz2     :     0.068854  d :     0.157875
      dxz     :     0.044511
      dyz     :     0.044511
      dx2y2   :     0.000000
      dxy     :     0.000000
      f0      :     0.007234  f :     0.018797
      f+1     :     0.005781
      f-1     :     0.005781
      f+2     :     0.000000
      f-2     :     0.000000
      f+3     :     0.000000
      f-3     :     0.000000
  1 O s       :     3.633044  s :     3.633044
      pz      :     1.290868  p :     4.190284
      px      :     1.449708
      py      :     1.449708
      dz2     :     0.068854  d :     0.157875
      dxz     :     0.044511
      dyz     :     0.044511
      dx2y2   :     0.000000
      dxy     :     0.000000
      f0      :     0.007234  f :     0.018797
      f+1     :     0.005781
      f-1     :     0.005781
      f+2     :     0.000000
      f-2     :     0.000000
      f+3     :     0.000000
      f-3     :     0.000000

SPIN
  0 O s       :     0.000000  s :     0.000000
      pz      :     0.000000  p :     0.475681
      px      :     0.237840
      py      :     0.237840
      dz2     :     0.000000  d :     0.021261
      dxz     :     0.010631
      dyz     :     0.010631
      dx2y2   :     0.000000
      dxy     :     0.000000
      f0      :     0.000000  f :     0.003058
      f+1     :     0.001529
      f-1     :     0.001529
      f+2     :     0.000000
      f-2     :     0.000000
      f+3     :     0.000000
      f-3     :     0.000000
  1 O s       :     0.000000  s :     0.000000
      pz      :     0.000000  p :     0.475681
      px      :     0.237840
      py      :     0.237840
      dz2     :     0.000000  d :     0.021261
      dxz     :     0.010631
      dyz     :     0.010631
      dx2y2   :     0.000000
      dxy     :     0.000000
      f0      :     0.000000  f :     0.003058
      f+1     :     0.001529
      f-1     :     0.001529
      f+2     :     0.000000
      f-2     :     0.000000
      f+3     :     0.000000
      f-3     :     0.000000


                      *****************************
                      * MAYER POPULATION ANALYSIS *
                      *****************************

  NA   - Mulliken gross atomic population
  ZA   - Total nuclear charge
  QA   - Mulliken gross atomic charge
  VA   - Mayer's total valence
  BVA  - Mayer's bonded valence
  FA   - Mayer's free valence

  ATOM       NA         ZA         QA         VA         BVA        FA
  0 O      8.0000     8.0000     0.0000     2.3600     1.4850     0.8750
  1 O      8.0000     8.0000    -0.0000     2.3600     1.4850     0.8750

  Mayer bond orders larger than 0.100000
B(  0-O ,  1-O ) :   1.4850 


-------------------------------------------------------------
 Forming the transition density       ... done in 0.000657 sec
-------------------------------------------------------------



==========================================
CASSCF UV, CD spectra and dipole moments
==========================================
-------------------
ABSORPTION SPECTRUM
-------------------

Center of mass           = (  0.0000,  0.0000,  1.1393)
Nuclear contribution to the dipole moment =     0.000000,    0.000000,    0.000000 au

Calculating the Dipole integrals                  ... done
Transforming integrals                            ... done
Calculating the Linear Momentum integrals         ... done
Transforming integrals                            ... done
Calculating the Angular Momentum integrals        ... done
Transforming integrals                            ... done

------------------------------------------------------------------------------
                                 DIPOLE MOMENTS
------------------------------------------------------------------------------
  Root  Block           TX        TY        TZ           |T|
                      (Debye)   (Debye)   (Debye)      (Debye)
------------------------------------------------------------------------------
    0    0            0.00000   0.00000  -0.00000      0.00000

--------------
CASSCF TIMINGS
--------------

Total time                       ...        2.5 sec
Sum of individual times          ...        2.4 sec ( 94.0%)

Calculation of AO operators
   F(Core) operator              ...        0.6 sec ( 23.0%)
   G(Act) operator               ...        0.5 sec ( 20.9%)
Calculation of MO transformed quantities
   J(MO) operators               ...        1.2 sec ( 48.9%)
   AO->MO one electron integrals ...        0.0 sec (  0.0%)
Configuration interaction steps
   CI-setup phase                ...        0.0 sec (  0.1%)
   CI-solution phase             ...        0.0 sec (  0.4%)
   Generation of densities       ...        0.0 sec (  0.4%)
Orbital improvement steps
   Orbital gradient              ...        0.0 sec (  0.0%)
   O(1) converger                ...        0.0 sec (  0.1%)
Properties                       ...        0.0 sec (  0.0%)
   SOC integral calculation      ...        0.0 sec (  0.0%)
   SSC RMEs (incl. integrals)    ...        0.0 sec (  0.0%)
   SOC RMEs                      ...        0.0 sec (  0.0%)

Maximum memory used throughout the entire CASSCF-calculation: 78.2 MB

-------------------------   --------------------
FINAL SINGLE POINT ENERGY      -149.629105080417
-------------------------   --------------------


                            ***************************************
                            *     ORCA property calculations      *
                            ***************************************

                                    ---------------------
                                    Active property flags
                                    ---------------------
   (+) Dipole Moment


------------------------------------------------------------------------------
                       ORCA ELECTRIC PROPERTIES CALCULATION
------------------------------------------------------------------------------

Dipole Moment Calculation                       ... on
Quadrupole Moment Calculation                   ... off
Polarizability Calculation                      ... off
GBWName                                         ... mol.gbw
Electron density                                ... mol.scfp
The origin for moment calculation is the CENTER OF MASS  = ( 0.000000,  0.000000  1.139316)

-------------
DIPOLE MOMENT
-------------
                                X             Y             Z
Electronic contribution:      0.00000       0.00000      -0.00000
Nuclear contribution   :      0.00000       0.00000       0.00000
                        -----------------------------------------
Total Dipole Moment    :      0.00000       0.00000      -0.00000
                        -----------------------------------------
Magnitude (a.u.)       :      0.00000
Magnitude (Debye)      :      0.00000



--------------------
Rotational spectrum 
--------------------
 
Rotational constants in cm-1:     0.000000     1.449384     1.449384 
Rotational constants in MHz :     0.000000 43451.442843 43451.442843 

 Dipole components along the rotational axes: 
x,y,z [a.u.] :    -0.000000     0.000000     0.000000 
x,y,z [Debye]:    -0.000000     0.000000     0.000000 

 

--------------------------------
SUGGESTED CITATIONS FOR THIS RUN
--------------------------------

Below you find a list of papers that are relevant to this ORCA run
We neither can nor want to force you to cite these paper, but we appreciate if you do
You receive ORCA, which is the product of a lot of hard work by many enthusiastic individuals, for free
The *only* thing we kindly ask in return is that you cite our papers,
We deeply appreciate it, if you show your appreciation for ORCA but *not* just citing the generic ORCA reference.

Please note that relegating all ORCA citations to the supporting information does *not* help us.
SI sections are not index - citations you put there will not count into our citation statistics
But we need these citations in order to attract the funding ressources that allow us to do what we are doing

Therefore, please consider citing at least a few of the papers listed below, if you are a happy ORCA user

In addition to the list printed below, the program has created the file mol.bibtex that contains the list in bibtex format
In this format, you can import it easily in all common literature databanks and citation aid programs


List of essential papers. We consider these as the minimum necessary citations

  1. Neese,F.
     Software update: the ORCA program system, version 5.0
     WIRES Comput. Molec. Sci., 2022 12(1)e1606
     doi.org/10.1002/wcms.1606

List of papers to cite with high priority. The work reported in these papers was absolutely
necessary for this run to complete.
Our perspective: the developers of density functionals and basis sets usually get cited in chemistry papers
Good! But without the algorithms to do something with them, the functionals or basis sets would not do anything.
Hence, in our opinion, the algorithm design and method developments papers are equally worthy of getting cited

  1. Kollmar,C.; Sivalingam,K.; Helmich-Paris,B.; Angeli,C.; Neese,F.
     A perturbation-based super-CI approach for the orbital optimization of a CASSCF wave function
     J. Comput. Chem., 2019 40 1463-1470
     doi.org/10.1002/jcc.25801
  2. Neese,F.
     The SHARK Integral Generation and Digestion System
     J. Comp. Chem., 2022  1-16
     doi.org/10.1002/jcc.26942

List of suggested additional citations. These are papers that are important in the 'surrounding' of 
of this run, or papers that preceded the highly important papers. If you like your results we are grateful for a citation.

  1. Neese,F.
     The ORCA program system
     WIRES Comput. Molec. Sci., 2012 2(1)73-78
     doi.org/10.1002/wcms.81
  2. Neese,F.
     Software update: the ORCA program system, version 4.0
     WIRES Comput. Molec. Sci., 2018 8(1)1-6
     doi.org/10.1002/wcms.1327
  3. Neese,F.; Wennmohs,F.; Becker,U.; Riplinger,C.
     The ORCA quantum chemistry program package
     J. Chem. Phys., 2020 152 Art. No. L224108
     doi.org/10.1063/5.0004608

Timings for individual modules:

Sum of individual times         ...        3.270 sec (=   0.055 min)
GTO integral calculation        ...        0.349 sec (=   0.006 min)  10.7 %
SCF iterations                  ...        0.349 sec (=   0.006 min)  10.7 %
CASSCF iterations               ...        2.572 sec (=   0.043 min)  78.6 %
                             ****ORCA TERMINATED NORMALLY****
TOTAL RUN TIME: 0 days 0 hours 0 minutes 3 seconds 402 msec
'mol.bibtex' -> '/csnfs/users/llang/calculations/ICE_SOC_SSC/diatomics/O2/def2-TZVP/CAS_2_2/mol.bibtex'
'mol.densities' -> '/csnfs/users/llang/calculations/ICE_SOC_SSC/diatomics/O2/def2-TZVP/CAS_2_2/mol.densities'
'mol.err' -> '/csnfs/users/llang/calculations/ICE_SOC_SSC/diatomics/O2/def2-TZVP/CAS_2_2/mol.err'
'mol.gbw' -> '/csnfs/users/llang/calculations/ICE_SOC_SSC/diatomics/O2/def2-TZVP/CAS_2_2/mol.gbw'
'mol.job' -> '/csnfs/users/llang/calculations/ICE_SOC_SSC/diatomics/O2/def2-TZVP/CAS_2_2/mol.job'
'mol_property.txt' -> '/csnfs/users/llang/calculations/ICE_SOC_SSC/diatomics/O2/def2-TZVP/CAS_2_2/mol_property.txt'
cp: cannot stat 'mol.asa.inp': No such file or directory
cp: missing destination file operand after '/csnfs/users/llang/calculations/ICE_SOC_SSC/diatomics/O2/def2-TZVP/CAS_2_2/'
Try 'cp --help' for more information.
