! Job execution by suborca V 9.38 !
Job started from head1.mpi-muelheim.mpg.de, running /hsnfs/software/orca/orca_current_directory/orca_current_20230705/orca on xe30th84.mpi-muelheim.mpg.de in /usr/scratch/llang/mol__298189 (/bin/tcsh)
Job execution start: Wed Jul  5 10:35:15 CEST 2023
Shared library path: /hsnfs/software/openmpi-4.1.0/lib:/hsnfs/software/orca/orca_current_directory/orca_current_20230705:/hsnfs/software/themis/llvm-14.0.1/lib:/hsnfs/software/orca/orca_stable:/usr/users/openmpi-2.0.4/lib:/opt/intel/lib/intel64:/opt/intel/mkl/lib/intel64
SLURM Job ID is: 298189
SLURM_JOB_NODELIST: xe30th84
Maxcore enforced by SLURM: 14400 MB per core
Expanded nodelist (1 nodes):
xe30th84

                                 *****************
                                 * O   R   C   A *
                                 *****************

                                            #,                                       
                                            ###                                      
                                            ####                                     
                                            #####                                    
                                            ######                                   
                                           ########,                                 
                                     ,,################,,,,,                         
                               ,,#################################,,                 
                          ,,##########################################,,             
                       ,#########################################, ''#####,          
                    ,#############################################,,   '####,        
                  ,##################################################,,,,####,       
                ,###########''''           ''''###############################       
              ,#####''   ,,,,##########,,,,          '''####'''          '####       
            ,##' ,,,,###########################,,,                        '##       
           ' ,,###''''                  '''############,,,                           
         ,,##''                                '''############,,,,        ,,,,,,###''
      ,#''                                            '''#######################'''  
     '                                                          ''''####''''         
             ,#######,   #######,   ,#######,      ##                                
            ,#'     '#,  ##    ##  ,#'     '#,    #''#        ,####,   ,####,        
            ##       ##  ##   ,#'  ##            #'  '#       #'       #'  '#        
            ##       ##  #######   ##           ,######,      #####,   #    #        
            '#,     ,#'  ##    ##  '#,     ,#' ,#      #,     #,   #   #,  ,#        
             '#######'   ##     ##  '#######'  #'      '#     '####' # '####'.alpha  



                  #######################################################
                  #                        -***-                        #
                  #          Department of theory and spectroscopy      #
                  #    Directorship and core code : Frank Neese         #
                  #        Max Planck Institute fuer Kohlenforschung    #
                  #                Kaiser Wilhelm Platz 1               #
                  #                 D-45470 Muelheim/Ruhr               #
                  #                      Germany                        #
                  #                                                     #
                  #                  All rights reserved                #
                  #                        -***-                        #
                  #######################################################


                         Program Version 5.0  -  CURRENT   -
                                (GIT: $a85e96422$)
                ($2023-07-04 16:19:44 +0200 $)

                  !                     WARNING:                         !
                  !         This is a DEVELOPMENT version                !

                         (BUILD: $Mi 5. Jul 00:08:21 CEST 2023$)


 With contributions from (in alphabetic order):
   Daniel Aravena         : Magnetic Suceptibility
   Michael Atanasov       : Ab Initio Ligand Field Theory (pilot matlab implementation)
   Alexander A. Auer      : GIAO ZORA, VPT2 properties, NMR spectrum
   Ute Becker             : Parallelization
   Giovanni Bistoni       : ED, misc. LED, open-shell LED, HFLD
   Martin Brehm           : Molecular dynamics
   Dmytro Bykov           : SCF Hessian
   Vijay G. Chilkuri      : MRCI spin determinant printing, contributions to CSF-ICE
   Dipayan Datta          : RHF DLPNO-CCSD density
   Achintya Kumar Dutta   : EOM-CC, STEOM-CC
   Dmitry Ganyushin       : Spin-Orbit,Spin-Spin,Magnetic field MRCI
   Miquel Garcia          : C-PCM and meta-GGA Hessian, CCSD/C-PCM, Gaussian charge scheme
   Yang Guo               : DLPNO-NEVPT2, F12-NEVPT2, CIM, IAO-localization
   Andreas Hansen         : Spin unrestricted coupled pair/coupled cluster methods
   Benjamin Helmich-Paris : MC-RPA, TRAH-(SCF,CASSCF), AVAS, COSX integrals, SCF dyn. polar.
   Lee Huntington         : MR-EOM, pCC
   Robert Izsak           : Overlap fitted RIJCOSX, COSX-SCS-MP3, EOM
   Marcus Kettner         : VPT2
   Christian Kollmar      : KDIIS, OOCD, Brueckner-CCSD(T), CCSD density, CASPT2, CASPT2-K, improved NEVPT2
   Simone Kossmann        : Meta GGA functionals, TD-DFT gradient, OOMP2, MP2 Hessian
   Martin Krupicka        : Initial AUTO-CI
   Lucas Lang             : DCDCAS
   Marvin Lechner         : AUTO-CI (C++ implementation), FIC-MRCC
   Dagmar Lenk            : GEPOL surface, SMD
   Dimitrios Liakos       : Extrapolation schemes; Compound Job, initial MDCI parallelization
   Dimitrios Manganas     : Further ROCIS development; embedding schemes
   Dimitrios Pantazis     : SARC Basis sets
   Anastasios Papadopoulos: AUTO-CI, single reference methods and gradients
   Taras Petrenko         : DFT Hessian,TD-DFT gradient, ASA, ECA, R-Raman, ABS, FL, XAS/XES, NRVS
   Peter Pinski           : DLPNO-MP2, DLPNO-MP2 Gradient
   Christoph Reimann      : Effective Core Potentials
   Marius Retegan         : Local ZFS, SOC
   Christoph Riplinger    : Optimizer, TS searches, QM/MM, DLPNO-CCSD(T), (RO)-DLPNO pert. Triples
   Tobias Risthaus        : Range-separated hybrids, TD-DFT gradient, RPA, STAB
   Michael Roemelt        : Original ROCIS implementation
   Masaaki Saitow         : Open-shell DLPNO-CCSD energy and density
   Barbara Sandhoefer     : DKH picture change effects
   Avijit Sen             : IP-ROCIS
   Kantharuban Sivalingam : CASSCF convergence, NEVPT2, FIC-MRCI
   Bernardo de Souza      : ESD, SOC TD-DFT
   Georgi Stoychev        : AutoAux, RI-MP2 NMR, DLPNO-MP2 response
   Willem Van den Heuvel  : Paramagnetic NMR
   Boris Wezisla          : Elementary symmetry handling
   Frank Wennmohs         : Technical directorship


 We gratefully acknowledge several colleagues who have allowed us to
 interface, adapt or use parts of their codes:
   Stefan Grimme, W. Hujo, H. Kruse, P. Pracht,  : VdW corrections, initial TS optimization,
                  C. Bannwarth, S. Ehlert          DFT functionals, gCP, sTDA/sTD-DF
   Ed Valeev, F. Pavosevic, A. Kumar             : LibInt (2-el integral package), F12 methods
   Garnet Chan, S. Sharma, J. Yang, R. Olivares  : DMRG
   Ulf Ekstrom                                   : XCFun DFT Library
   Mihaly Kallay                                 : mrcc  (arbitrary order and MRCC methods)
   Jiri Pittner, Ondrej Demel                    : Mk-CCSD
   Frank Weinhold                                : gennbo (NPA and NBO analysis)
   Christopher J. Cramer and Donald G. Truhlar   : smd solvation model
   Lars Goerigk                                  : TD-DFT with DH, B97 family of functionals
   V. Asgeirsson, H. Jonsson                     : NEB implementation
   FAccTs GmbH                                   : IRC, NEB, NEB-TS, DLPNO-Multilevel, CI-OPT
                                                   MM, QMMM, 2- and 3-layer-ONIOM, Crystal-QMMM,
                                                   LR-CPCM, SF, NACMEs, symmetry and pop. for TD-DFT,
                                                   nearIR, NL-DFT gradient (VV10), updates on ESD,
                                                   ML-optimized integration grids
   S Lehtola, MJT Oliveira, MAL Marques          : LibXC Library
   Liviu Ungur et al                             : ANISO software


 Your calculation uses the libint2 library for the computation of 2-el integrals
 For citations please refer to: http://libint.valeyev.net

 Your ORCA version has been built with support for libXC version: 5.2.2
 For citations please refer to: https://tddft.org/programs/libxc/

 This ORCA versions uses:
   CBLAS   interface :  Fast vector & matrix operations
   LAPACKE interface :  Fast linear algebra routines
   SCALAPACK package :  Parallel linear algebra routines
   Shared memory     :  Shared parallel matrices


================================================================================

----- Orbital basis set information -----
Your calculation utilizes the basis: def2-TZVP
   F. Weigend and R. Ahlrichs, Phys. Chem. Chem. Phys. 7, 3297 (2005).

----- AuxC basis set information -----
Your calculation utilizes the auxiliary basis: def2-TZVP/C
  H-La, Hf-Rn : A. Hellweg, C. Hattig, S. Hofener and W. Klopper, Theor. Chem. Acc. 117, 587 (2007).
        Ce-Lu : J. Chmela and M. E. Harding, Mol. Phys. (2018).

================================================================================
                                        WARNINGS
                       Please study these warnings very carefully!
================================================================================

WARNING: Old DensityContainer found on disk!
         Will remove this file - 
         If you want to keep old densities, please start your calculation with a different basename. 


INFO   : the flag for use of the SHARK integral package has been found!

================================================================================
                                       INPUT FILE
================================================================================
NAME = mol.inp
|  1> ! def2-TZVP def2-TZVP/C moread
|  2> 
|  3> %moinp "cas_2_2.gbw"
|  4> 
|  5> %maxcore 12000
|  6> 
|  7> %pal
|  8>   nprocs 24
|  9> end
| 10> 
| 11> %casscf
| 12>   nel 12
| 13>   norb 60
| 14>   mult 3,1
| 15>   nroots 5,4
| 16>   dotransdens false
| 17>   maxiter 1
| 18>   cistep ice
| 19>   ci
| 20>     icetype csfs
| 21>     tgen 1e-4
| 22>     tvar 1e-10
| 23>     csfciwithri 0
| 24>     cibufferlength 10000000
| 25>   end
| 26>   refs
| 27>     {2 2 2 2 2 1 1}
| 28>     {2 2 2 2 1 2 1}
| 29>     {2 2 2 1 2 2 1}
| 30>     {2 2 2 2 1 1 2}
| 31>     {2 2 2 1 2 1 2}
| 32>   end
| 33>   refs
| 34>     {2 2 2 2 2 2 0}
| 35>     {2 2 2 2 2 0 2}
| 36>     {2 2 2 2 2 1 -1}
| 37>     {2 2 2 2 1 2 -1}
| 38>     {2 2 2 2 1 -1 2}
| 39>     {2 2 2 1 2 2 -1}
| 40>     {2 2 2 1 2 -1 2}
| 41>   end
| 42>   rel
| 43>     dosoc true
| 44>     dossc true
| 45>     uv false
| 46>   end
| 47> end
| 48> 
| 49> *xyz 0 3
| 50> O 0.0 0.0 0.0
| 51> O 0.0 0.0 1.2058
| 52> * 
| 53> 
| 54>                          ****END OF INPUT****
================================================================================

                       ****************************
                       * Single Point Calculation *
                       ****************************

---------------------------------
CARTESIAN COORDINATES (ANGSTROEM)
---------------------------------
  O      0.000000    0.000000    0.000000
  O      0.000000    0.000000    1.205800

----------------------------
CARTESIAN COORDINATES (A.U.)
----------------------------
  NO LB      ZA    FRAG     MASS         X           Y           Z
   0 O     8.0000    0    15.999    0.000000    0.000000    0.000000
   1 O     8.0000    0    15.999    0.000000    0.000000    2.278632

--------------------------------
INTERNAL COORDINATES (ANGSTROEM)
--------------------------------
 O      0   0   0     0.000000000000     0.00000000     0.00000000
 O      1   0   0     1.205800000000     0.00000000     0.00000000

---------------------------
INTERNAL COORDINATES (A.U.)
---------------------------
 O      0   0   0     0.000000000000     0.00000000     0.00000000
 O      1   0   0     2.278631772282     0.00000000     0.00000000

---------------------
BASIS SET INFORMATION
---------------------
There are 1 groups of distinct atoms

 Group   1 Type O   : 11s6p2d1f contracted to 5s3p2d1f pattern {62111/411/11/1}

---------------------------------
AUXILIARY/C BASIS SET INFORMATION
---------------------------------
There are 1 groups of distinct atoms

 Group   1 Type O   : 8s6p5d3f1g contracted to 8s6p4d3f1g pattern {11111111/111111/2111/111/1}



           ************************************************************
           *        Program running with 24 parallel MPI-processes    *
           *              working on a common directory               *
           ************************************************************
------------------------------------------------------------------------------
                           ORCA GTO INTEGRAL CALCULATION
------------------------------------------------------------------------------
------------------------------------------------------------------------------
                   ___                                                        
                  /   \      - P O W E R E D   B Y -                         
                 /     \                                                     
                 |  |  |   _    _      __       _____    __    __             
                 |  |  |  | |  | |    /  \     |  _  \  |  |  /  |          
                  \  \/   | |  | |   /    \    | | | |  |  | /  /          
                 / \  \   | |__| |  /  /\  \   | |_| |  |  |/  /          
                |  |  |   |  __  | /  /__\  \  |    /   |      \           
                |  |  |   | |  | | |   __   |  |    \   |  |\   \          
                \     /   | |  | | |  |  |  |  | |\  \  |  | \   \       
                 \___/    |_|  |_| |__|  |__|  |_| \__\ |__|  \__/        
                                                                              
                      - O R C A' S   B I G   F R I E N D -                    
                                      &                                       
                       - I N T E G R A L  F E E D E R -                       
                                                                              
 v1 FN, 2020, v2 2021                                                         
------------------------------------------------------------------------------


----------------------
SHARK INTEGRAL PACKAGE
----------------------

Number of atoms                             ...      2
Number of basis functions                   ...     62
Number of shells                            ...     22
Maximum angular momentum                    ...      3
Integral batch strategy                     ... SHARK/LIBINT Hybrid
RI-J (if used) integral strategy            ... SPLIT-RIJ (Revised 2003 algorithm where possible)
Printlevel                                  ...      1
Contraction scheme used                     ... SEGMENTED contraction
Prescreening option                         ... SCHWARTZ
   Thresh                                   ... 1.000e-10
   Tcut                                     ... 1.000e-11
   Tpresel                                  ... 1.000e-11 
Coulomb Range Separation                    ... NOT USED
Exchange Range Separation                   ... NOT USED
Finite Nucleus Model                        ... NOT USED
Auxiliary Coulomb fitting basis             ... NOT available
Auxiliary J/K fitting basis                 ... NOT available
Auxiliary Correlation fitting basis         ... AVAILABLE
   # of basis functions in Aux-C            ...    152
   # of shells in Aux-C                     ...     44
   Maximum angular momentum in Aux-C        ...      4
Auxiliary 'external' fitting basis          ... NOT available

Calculating pre-screening integrals         ... done (  0.0 sec) Dimension = 22
Organizing shell pair data                  ... done (  0.0 sec)
Shell pair information
Total number of shell pairs                 ...       253
Shell pairs after pre-screening             ...       252
Total number of primitive shell pairs       ...       864
Primitive shell pairs kept                  ...       783
          la=0 lb=0:     54 shell pairs
          la=1 lb=0:     60 shell pairs
          la=1 lb=1:     21 shell pairs
          la=2 lb=0:     40 shell pairs
          la=2 lb=1:     24 shell pairs
          la=2 lb=2:     10 shell pairs
          la=3 lb=0:     20 shell pairs
          la=3 lb=1:     12 shell pairs
          la=3 lb=2:      8 shell pairs
          la=3 lb=3:      3 shell pairs

Calculating one electron integrals          ... done (  0.1 sec)
Calculating RI/C V-Matrix + Cholesky decomp.... done (  0.0 sec)
Calculating Nuclear repulsion               ... done (  0.0 sec) ENN=     28.087030462100 Eh

-------------------
DFT GRID GENERATION
-------------------

General Integration Accuracy     IntAcc      ... 4.388
Radial Grid Type                 RadialGrid  ... OptM3 with GC (2021)
Angular Grid (max. ang.)         AngularGrid ... 4 (Lebedev-302)
Angular grid pruning method      GridPruning ... 4 (adaptive)
Weight generation scheme         WeightScheme... mBecke (2022)
Basis function cutoff            BFCut       ... 1.0000e-10
Integration weight cutoff        WCut        ... 1.0000e-14
Partially contracted basis set               ... off
Rotationally invariant grid construction     ... off
Angular grids for H and He will be reduced by one unit

Total number of grid points                  ...    12260
Total number of batches                      ...      192
Average number of points per batch           ...       63
Average number of grid points per atom       ...     6130

General Integration Accuracy     IntAcc      ... 4.388
Radial Grid Type                 RadialGrid  ... OptM3 with GC (2021)
Angular Grid (max. ang.)         AngularGrid ... 4 (Lebedev-302)
Angular grid pruning method      GridPruning ... 4 (adaptive)
Weight generation scheme         WeightScheme... mBecke (2022)
Basis function cutoff            BFCut       ... 1.0000e-10
Integration weight cutoff        WCut        ... 1.0000e-14
Partially contracted basis set               ... off
Rotationally invariant grid construction     ... off
Angular grids for H and He will be reduced by one unit

Total number of grid points                  ...    12260
Total number of batches                      ...      192
Average number of points per batch           ...       63
Average number of grid points per atom       ...     6130
Initializing poperty integral containers    ... done (  0.0 sec)

SHARK setup successfully completed in   0.4 seconds

Maximum memory used throughout the entire STARTUP-calculation: 14.0 MB


           ************************************************************
           *        Program running with 24 parallel MPI-processes    *
           *              working on a common directory               *
           ************************************************************

------------------------------------------------------------------------------
                         ORCA PROPERTY INTEGRAL CALCULATIONS
------------------------------------------------------------------------------

GBWName                                   ... mol.gbw
Number of atoms                           ...      2
Number of basis functions                 ...     62
Max core memory                           ...  12000 MB

Dipole integrals                          ... YES
Quadrupole integrals                      ...  NO
Linear Momentum integrals                 ...  NO
Angular Momentum integrals                ...  NO
Higher Moments length integrals           ...  NO
Higher Moments velocity integrals         ...  NO
Kinetic energy integrals                  ...  NO
GIAO Right Hand Sides                     ...  NO
SOC integrals                             ...  NO
EPR diamagnetic integrals (GIAO)          ...  NO
EPR gauge integrals                       ...  NO
Field gradient integrals                  ...  NO (   0 nuclei)
Spin-dipole/Fermi contact integrals       ...  NO (   0 nuclei)
Nucleus-orbit integrals                   ...  NO (   0 nuclei)
Geometric perturbations                   ...  NO (   2 nuclei)
Electric origin: (  0.0000,  0.0000,  1.1393) 
Magnetic origin: (  0.0000,  0.0000,  0.0000) 

Calculating integrals                     ... Electric Dipole (Length)     done (  0.0 sec)

Property integrals calculated in   0.0 sec

Maximum memory used throughout the entire PROPINT-calculation: 7.0 MB


           ************************************************************
           *        Program running with 24 parallel MPI-processes    *
           *              working on a common directory               *
           ************************************************************
-------------------------------------------------------------------------------
                                 ORCA SCF
-------------------------------------------------------------------------------

------------
SCF SETTINGS
------------
Hamiltonian:
 Ab initio Hamiltonian  Method          .... Hartree-Fock(GTOs)


General Settings:
 Integral files         IntName         .... mol
 Hartree-Fock type      HFTyp           .... CASSCF
 Total Charge           Charge          ....    0
 Multiplicity           Mult            ....    3
 Number of Electrons    NEL             ....   16
 Basis Dimension        Dim             ....   62
 Nuclear Repulsion      ENuc            ....     28.0870304621 Eh


Diagonalization of the overlap matrix:
Smallest eigenvalue                        ... 1.850e-03
Time for diagonalization                   ...    0.045 sec
Threshold for overlap eigenvalues          ... 1.000e-08
Number of eigenvalues below threshold      ... 0
Time for construction of square roots      ...    0.001 sec
Total time needed                          ...    0.047 sec

---------------------
INITIAL GUESS: MOREAD
---------------------


WARNING!!!!!!!
Your GBWFile is either corrupt or from a different ORCA version!
Please be VERY careful with your calculation results!!!

Data_size, sizeof( TOrcaInfo ): 770368, 776296
Guess MOs are being read from file: cas_2_2.gbw
Input Geometry matches current geometry (good)
Input basis set matches current basis set (good)
MOs were renormalized
Gram-Schmidt orthogonalization of all MOs with pivot on actives
                      ------------------
                      INITIAL GUESS DONE (   0.0 sec)
                      ------------------


 ... the calculation is a CASSCF calculation -I'm leaving here GOOD LUCK!!!



           ************************************************************
           *        Program running with 24 parallel MPI-processes    *
           *              working on a common directory               *
           ************************************************************
-------------------------------------------------------------------------------
                              ORCA-CASSCF
-------------------------------------------------------------------------------

Setting up the integral package     ... done
Setting up CIPSI                      ... 


Checking CIPSI (ICE) Settings:
     MaxDim    10
     UsingRI   0
     CIPSISweepWindow   -1
     CIETol    1.000e-08
     CIRTol    1.000e-08
     NGMat     512
done (  0.0 sec)

SYSTEM-SPECIFIC SETTINGS:
Number of active electrons          ...   12
Number of active orbitals           ...   60
Total number of electrons           ...   16
Total number of orbitals            ...   62

Determined orbital ranges:
   Internal       0 -    1 (   2 orbitals)
   Active         2 -   61 (  60 orbitals)
   External      62 -   61 (   0 orbitals)
Number of rotation parameters      ...    120

CI-STEP:
CI strategy                         ... ICE (approximate)
Number of multiplicity blocks       ...    2
BLOCK  0 WEIGHT=   0.5000
  Multiplicity                      ...    3
  #(Configurations)                 ...    0
  #(CSFs)                           ...    5
  #(Roots)                          ...    5
    ROOT=0 WEIGHT=    0.100000
    ROOT=1 WEIGHT=    0.100000
    ROOT=2 WEIGHT=    0.100000
    ROOT=3 WEIGHT=    0.100000
    ROOT=4 WEIGHT=    0.100000

BLOCK  1 WEIGHT=   0.5000
  Multiplicity                      ...    1
  #(Configurations)                 ...    0
  #(CSFs)                           ...    7
  #(Roots)                          ...    4
    ROOT=0 WEIGHT=    0.125000
    ROOT=1 WEIGHT=    0.125000
    ROOT=2 WEIGHT=    0.125000
    ROOT=3 WEIGHT=    0.125000

  PrintLevel                        ...    1
  N(GuessMat)                       ...       512
  MaxDim(CI)                        ...        10
  MaxIter(CI)                       ...        64
  Energy Tolerance CI               ... -1.00e+00
  Residual Tolerance CI             ... -1.00e+00
  Shift(CI)                         ...  1.00e-04
  ICE TGen                          ... 1.000e-04
  ICE TVar                          ... 1.000e-10
  ICE Type                          ... 1

INTEGRAL-TRANSFORMATION-STEP:
  Algorithm                         ... EXACT

ORBITAL-IMPROVEMENT-STEP:
  MaxMacroIter 1 detected                >>> CAS-CI. Check your FINAL ORBITAL options!

SCF-SETTINGS:
  Incremental                       ... on
  RIJCOSX approximation             ... off
  RI-JK approximation               ... off
  AO integral handling              ... DIRECT
  Integral Neglect Thresh           ...  1.00e-10
  Primitive cutoff TCut             ...  1.00e-11
  Energy convergence tolerance      ...  1.00e-07
  Orbital gradient convergence      ...  1.00e-03
  Max. number of iterations         ...         1  


PROPERTIES-SETTINGS:
  Spin orbit coupling               ... true

FINAL ORBITALS:
  Active   Orbitals                 ... unchanged 
  Internal Orbitals                 ... canonical 
  External Orbitals                 ... canonical 

------------------
CAS-SCF ITERATIONS
------------------


MACRO-ITERATION   1: 
   --- Inactive Energy E0 = -102.41516137 Eh
   --- All densities will be recomputed

                       ****Iteration    0****
  T(sigma)=     0.186 sec T(BLAS)=    0.000 NAv(S)=5303.4 NMax(S)=733
   Maximum residual norm  :     0.000000000000

      *** CONVERGENCE OF RESIDUAL NORM REACHED ***
STATE   0 MULT= 3: E=   -149.6604730630 Eh W=  0.1000 DE= 0.000 eV      0.0 cm**-1
      1.00000 (-1.000000000) CSF = 2 2 2 2 2 1+1+0 0 0 0 0 0 0 0 0 0 0 0 0 0 0 0 0 0 0 0 0 0 0 0 0 0 0 0 0 0 0 0 0 0 0 0 0 0 0 0 0 0 0 0 0 0 0 0 0 0 0 0 0 

STATE   1 MULT= 3: E=   -149.5025166850 Eh W=  0.1000 DE= 4.298 eV  34667.4 cm**-1
      0.50000 ( 0.707106627) CSF = 2 2 2 1+2 1+2 0 0 0 0 0 0 0 0 0 0 0 0 0 0 0 0 0 0 0 0 0 0 0 0 0 0 0 0 0 0 0 0 0 0 0 0 0 0 0 0 0 0 0 0 0 0 0 0 0 0 0 0 0 
      0.50000 (-0.707106627) CSF = 2 2 2 2 1+2 1+0 0 0 0 0 0 0 0 0 0 0 0 0 0 0 0 0 0 0 0 0 0 0 0 0 0 0 0 0 0 0 0 0 0 0 0 0 0 0 0 0 0 0 0 0 0 0 0 0 0 0 0 0 

STATE   2 MULT= 3: E=   -149.5025166848 Eh W=  0.1000 DE= 4.298 eV  34667.4 cm**-1
      0.50000 (-0.707106627) CSF = 2 2 2 2 1+1+2 0 0 0 0 0 0 0 0 0 0 0 0 0 0 0 0 0 0 0 0 0 0 0 0 0 0 0 0 0 0 0 0 0 0 0 0 0 0 0 0 0 0 0 0 0 0 0 0 0 0 0 0 0 
      0.50000 (-0.707106627) CSF = 2 2 2 1+2 2 1+0 0 0 0 0 0 0 0 0 0 0 0 0 0 0 0 0 0 0 0 0 0 0 0 0 0 0 0 0 0 0 0 0 0 0 0 0 0 0 0 0 0 0 0 0 0 0 0 0 0 0 0 0 

STATE   3 MULT= 3: E=   -149.4968591906 Eh W=  0.1000 DE= 4.452 eV  35909.1 cm**-1
      0.50000 (-0.707106617) CSF = 2 2 2 1+2 2 1+0 0 0 0 0 0 0 0 0 0 0 0 0 0 0 0 0 0 0 0 0 0 0 0 0 0 0 0 0 0 0 0 0 0 0 0 0 0 0 0 0 0 0 0 0 0 0 0 0 0 0 0 0 
      0.50000 ( 0.707106617) CSF = 2 2 2 2 1+1+2 0 0 0 0 0 0 0 0 0 0 0 0 0 0 0 0 0 0 0 0 0 0 0 0 0 0 0 0 0 0 0 0 0 0 0 0 0 0 0 0 0 0 0 0 0 0 0 0 0 0 0 0 0 

STATE   4 MULT= 3: E=   -149.1941292373 Eh W=  0.1000 DE=12.690 eV 102350.6 cm**-1
      0.50000 ( 0.707106617) CSF = 2 2 2 2 1+2 1+0 0 0 0 0 0 0 0 0 0 0 0 0 0 0 0 0 0 0 0 0 0 0 0 0 0 0 0 0 0 0 0 0 0 0 0 0 0 0 0 0 0 0 0 0 0 0 0 0 0 0 0 0 
      0.50000 ( 0.707106617) CSF = 2 2 2 1+2 1+2 0 0 0 0 0 0 0 0 0 0 0 0 0 0 0 0 0 0 0 0 0 0 0 0 0 0 0 0 0 0 0 0 0 0 0 0 0 0 0 0 0 0 0 0 0 0 0 0 0 0 0 0 0 


                  **********************************
                  *  ICECI/CSF MACROITERATION   1  *
                  **********************************

   # of selected CSFs                    ... 126421

                       ****Iteration    0****
  T(sigma)=    37.631 sec T(BLAS)=    0.000 NAv(S)=857855.5 NMax(S)=236164
   Maximum residual norm  :     2.906993773769

                       ****Iteration    1****
  T(sigma)=    38.129 sec T(BLAS)=    0.000 NAv(S)=857855.5 NMax(S)=236164
   Maximum residual norm  :     0.531976210625

                       ****Iteration    2****
  T(sigma)=    38.176 sec T(BLAS)=    0.000 NAv(S)=857855.5 NMax(S)=236164
   Maximum residual norm  :     0.026786987156

                       ****Iteration    3****
  T(sigma)=    38.979 sec T(BLAS)=    0.000 NAv(S)=857855.5 NMax(S)=236164
   Maximum residual norm  :     0.002180191271

                       ****Iteration    4****
  T(sigma)=    37.947 sec T(BLAS)=    0.000 NAv(S)=857855.5 NMax(S)=236164
   Maximum residual norm  :     0.000292638507

                       ****Iteration    5****
  T(sigma)=    38.242 sec T(BLAS)=    0.000 NAv(S)=857855.5 NMax(S)=236164
   Maximum residual norm  :     0.000046776907

                       ****Iteration    6****
  T(sigma)=    37.458 sec T(BLAS)=    0.000 NAv(S)=857855.5 NMax(S)=236164
   Maximum residual norm  :     0.000004583872

                       ****Iteration    7****
  T(sigma)=    39.816 sec T(BLAS)=    0.000 NAv(S)=857855.5 NMax(S)=236164
   Maximum residual norm  :     0.000000588179

                       ****Iteration    8****
  T(sigma)=    39.004 sec T(BLAS)=    0.000 NAv(S)=857855.5 NMax(S)=236164
   Maximum residual norm  :     0.000000066532

                       ****Iteration    9****
  T(sigma)=    37.509 sec T(BLAS)=    0.000 NAv(S)=857855.5 NMax(S)=236164
   Maximum residual norm  :     0.000000007751

      *** CONVERGENCE OF RESIDUAL NORM REACHED ***
STATE   0 MULT= 3: E=   -150.0845493380 Eh W=  0.1000 DE= 0.000 eV      0.0 cm**-1
      0.91161 ( 0.954781072) CSF = 2 2 2 2 2 1+1+0 0 0 0 0 0 0 0 0 0 0 0 0 0 0 0 0 0 0 0 0 0 0 0 0 0 0 0 0 0 0 0 0 0 0 0 0 0 0 0 0 0 0 0 0 0 0 0 0 0 0 0 0 
      0.00677 (-0.082297102) CSF = 2 2 2 1+1+2 2 0 0 0 0 0 0 0 0 0 0 0 0 0 0 0 0 0 0 0 0 0 0 0 0 0 0 0 0 0 0 0 0 0 0 0 0 0 0 0 0 0 0 0 0 0 0 0 0 0 0 0 0 0 

STATE   1 MULT= 3: E=   -149.8721182948 Eh W=  0.1000 DE= 5.781 eV  46623.2 cm**-1
      0.42247 (-0.649975219) CSF = 2 2 2 1+2 1+2 0 0 0 0 0 0 0 0 0 0 0 0 0 0 0 0 0 0 0 0 0 0 0 0 0 0 0 0 0 0 0 0 0 0 0 0 0 0 0 0 0 0 0 0 0 0 0 0 0 0 0 0 0 
      0.42247 ( 0.649974939) CSF = 2 2 2 2 1+2 1+0 0 0 0 0 0 0 0 0 0 0 0 0 0 0 0 0 0 0 0 0 0 0 0 0 0 0 0 0 0 0 0 0 0 0 0 0 0 0 0 0 0 0 0 0 0 0 0 0 0 0 0 0 
      0.04059 (-0.201466333) CSF = 2 2 2 2 1+1+2 0 0 0 0 0 0 0 0 0 0 0 0 0 0 0 0 0 0 0 0 0 0 0 0 0 0 0 0 0 0 0 0 0 0 0 0 0 0 0 0 0 0 0 0 0 0 0 0 0 0 0 0 0 
      0.04059 (-0.201466275) CSF = 2 2 2 1+2 2 1+0 0 0 0 0 0 0 0 0 0 0 0 0 0 0 0 0 0 0 0 0 0 0 0 0 0 0 0 0 0 0 0 0 0 0 0 0 0 0 0 0 0 0 0 0 0 0 0 0 0 0 0 0 

STATE   2 MULT= 3: E=   -149.8721139287 Eh W=  0.1000 DE= 5.781 eV  46624.2 cm**-1
      0.42247 ( 0.649977000) CSF = 2 2 2 1+2 2 1+0 0 0 0 0 0 0 0 0 0 0 0 0 0 0 0 0 0 0 0 0 0 0 0 0 0 0 0 0 0 0 0 0 0 0 0 0 0 0 0 0 0 0 0 0 0 0 0 0 0 0 0 0 
      0.42247 ( 0.649976385) CSF = 2 2 2 2 1+1+2 0 0 0 0 0 0 0 0 0 0 0 0 0 0 0 0 0 0 0 0 0 0 0 0 0 0 0 0 0 0 0 0 0 0 0 0 0 0 0 0 0 0 0 0 0 0 0 0 0 0 0 0 0 
      0.04059 (-0.201466526) CSF = 2 2 2 1+2 1+2 0 0 0 0 0 0 0 0 0 0 0 0 0 0 0 0 0 0 0 0 0 0 0 0 0 0 0 0 0 0 0 0 0 0 0 0 0 0 0 0 0 0 0 0 0 0 0 0 0 0 0 0 0 
      0.04059 ( 0.201466421) CSF = 2 2 2 2 1+2 1+0 0 0 0 0 0 0 0 0 0 0 0 0 0 0 0 0 0 0 0 0 0 0 0 0 0 0 0 0 0 0 0 0 0 0 0 0 0 0 0 0 0 0 0 0 0 0 0 0 0 0 0 0 

STATE   3 MULT= 3: E=   -149.8670275050 Eh W=  0.1000 DE= 5.919 eV  47740.5 cm**-1
      0.46306 (-0.680483409) CSF = 2 2 2 2 1+1+2 0 0 0 0 0 0 0 0 0 0 0 0 0 0 0 0 0 0 0 0 0 0 0 0 0 0 0 0 0 0 0 0 0 0 0 0 0 0 0 0 0 0 0 0 0 0 0 0 0 0 0 0 0 
      0.46306 ( 0.680482839) CSF = 2 2 2 1+2 2 1+0 0 0 0 0 0 0 0 0 0 0 0 0 0 0 0 0 0 0 0 0 0 0 0 0 0 0 0 0 0 0 0 0 0 0 0 0 0 0 0 0 0 0 0 0 0 0 0 0 0 0 0 0 

STATE   4 MULT= 3: E=   -149.7281446962 Eh W=  0.1000 DE= 9.698 eV  78221.8 cm**-1
      0.42518 ( 0.652060371) CSF = 2 2 2 2 1+2 1+0 0 0 0 0 0 0 0 0 0 0 0 0 0 0 0 0 0 0 0 0 0 0 0 0 0 0 0 0 0 0 0 0 0 0 0 0 0 0 0 0 0 0 0 0 0 0 0 0 0 0 0 0 
      0.42518 ( 0.652060032) CSF = 2 2 2 1+2 1+2 0 0 0 0 0 0 0 0 0 0 0 0 0 0 0 0 0 0 0 0 0 0 0 0 0 0 0 0 0 0 0 0 0 0 0 0 0 0 0 0 0 0 0 0 0 0 0 0 0 0 0 0 0 
      0.01057 ( 0.102795066) CSF = 2 2 1+2 2 1+1+0 0 0 0 0 0 0 1-0 0 0 0 0 0 0 0 0 0 0 0 0 0 0 0 0 0 0 0 0 0 0 0 0 0 0 0 0 0 0 0 0 0 0 0 0 0 0 0 0 0 0 0 0 
      0.00926 ( 0.096205634) CSF = 2 2 1+2 2 1-1+0 0 0 0 0 0 0 1+0 0 0 0 0 0 0 0 0 0 0 0 0 0 0 0 0 0 0 0 0 0 0 0 0 0 0 0 0 0 0 0 0 0 0 0 0 0 0 0 0 0 0 0 0 
      0.00560 (-0.074816615) CSF = 2 2 1+2 2 1+1+1-0 0 0 0 0 0 0 0 0 0 0 0 0 0 0 0 0 0 0 0 0 0 0 0 0 0 0 0 0 0 0 0 0 0 0 0 0 0 0 0 0 0 0 0 0 0 0 0 0 0 0 0 
      0.00519 ( 0.072049409) CSF = 2 2 1+1+1+2 2 0 0 0 0 0 0 0 1-0 0 0 0 0 0 0 0 0 0 0 0 0 0 0 0 0 0 0 0 0 0 0 0 0 0 0 0 0 0 0 0 0 0 0 0 0 0 0 0 0 0 0 0 0 
      0.00487 (-0.069810888) CSF = 2 2 2 2 2 1+0 0 0 1+0 0 0 0 0 0 0 0 0 0 0 0 0 0 0 0 0 0 0 0 0 0 0 0 0 0 0 0 0 0 0 0 0 0 0 0 0 0 0 0 0 0 0 0 0 0 0 0 0 0 
      0.00487 ( 0.069810797) CSF = 2 2 2 2 2 0 1+0 0 0 1+0 0 0 0 0 0 0 0 0 0 0 0 0 0 0 0 0 0 0 0 0 0 0 0 0 0 0 0 0 0 0 0 0 0 0 0 0 0 0 0 0 0 0 0 0 0 0 0 0 
      0.00389 (-0.062339882) CSF = 2 2 1+2 2 1-1+1+0 0 0 0 0 0 0 0 0 0 0 0 0 0 0 0 0 0 0 0 0 0 0 0 0 0 0 0 0 0 0 0 0 0 0 0 0 0 0 0 0 0 0 0 0 0 0 0 0 0 0 0 
      0.00309 ( 0.055544504) CSF = 2 2 1+2 2 1+1-0 0 0 0 0 0 0 1+0 0 0 0 0 0 0 0 0 0 0 0 0 0 0 0 0 0 0 0 0 0 0 0 0 0 0 0 0 0 0 0 0 0 0 0 0 0 0 0 0 0 0 0 0 
      0.00292 ( 0.054064756) CSF = 2 2 1+1-1+2 2 0 0 0 0 0 0 0 1+0 0 0 0 0 0 0 0 0 0 0 0 0 0 0 0 0 0 0 0 0 0 0 0 0 0 0 0 0 0 0 0 0 0 0 0 0 0 0 0 0 0 0 0 0 

Resetting TVAR
   # of selected  CSFs                        ... 126419
   # of generator CSFs                        ...    587
   # of NEW generator CSFs                    ...    582
   # of S+D CSFs generated                    ... 78855680
   Selecting from the generated CSFs          ...    # of CSFs after Selection                  ... 8488153
   # of NEW selected CSFs                     ... 8361734

                  **********************************
                  *  ICECI/CSF MACROITERATION   2  *
                  **********************************

   # of selected CSFs                    ... 8488153

                       ****Iteration    0****
  T(sigma)= 19176.012 sec T(BLAS)=    0.000 NAv(S)=3143120.3 NMax(S)=720905
   Maximum residual norm  :     0.467615410184

                       ****Iteration    1****
  T(sigma)= 19311.932 sec T(BLAS)=    0.000 NAv(S)=3143120.3 NMax(S)=720905
   Maximum residual norm  :     0.042544840902

                       ****Iteration    2****
  T(sigma)= 19232.257 sec T(BLAS)=    0.000 NAv(S)=3143120.3 NMax(S)=720905
   Maximum residual norm  :     0.010460175038

                       ****Iteration    3****
  T(sigma)= 19063.506 sec T(BLAS)=    0.000 NAv(S)=3143120.3 NMax(S)=720905
   Maximum residual norm  :     0.002845464789
WARNING: Failed to orthogonalize vector 4 in Davidson
         Increasing orthogonality tolerance to              ... 1.0e-15
         Please check your results carefully!

                       ****Iteration    4****
  T(sigma)= 19245.572 sec T(BLAS)=    0.000 NAv(S)=3143120.3 NMax(S)=720905
   Maximum residual norm  :     0.000941456395

                       ****Iteration    5****
  T(sigma)= 19110.987 sec T(BLAS)=    0.000 NAv(S)=3143120.3 NMax(S)=720905
   Maximum residual norm  :     0.000309789797

                       ****Iteration    6****
  T(sigma)= 19022.868 sec T(BLAS)=    0.000 NAv(S)=3143120.3 NMax(S)=720905
   Maximum residual norm  :     0.000101238544

                       ****Iteration    7****
  T(sigma)= 19085.772 sec T(BLAS)=    0.000 NAv(S)=3143120.3 NMax(S)=720905
   Maximum residual norm  :     0.000025606714

                       ****Iteration    8****
  T(sigma)= 19225.310 sec T(BLAS)=    0.000 NAv(S)=3143120.3 NMax(S)=720905
   Maximum residual norm  :     0.000006887550

                       ****Iteration    9****
  T(sigma)= 19263.384 sec T(BLAS)=    0.000 NAv(S)=3143120.3 NMax(S)=720905
   Maximum residual norm  :     0.000002045974
   Rebuilding the expansion space

                       ****Iteration   10****
  T(sigma)= 19396.212 sec T(BLAS)=    0.000 NAv(S)=3143120.3 NMax(S)=720905
   Maximum residual norm  :     0.000000578433

                       ****Iteration   11****
  T(sigma)= 19281.601 sec T(BLAS)=    0.000 NAv(S)=3143120.3 NMax(S)=720905
   Maximum residual norm  :     0.000000451101

                       ****Iteration   12****
  T(sigma)= 19260.253 sec T(BLAS)=    0.000 NAv(S)=3143120.3 NMax(S)=720905
   Maximum residual norm  :     0.000000140083

                       ****Iteration   13****
  T(sigma)= 19220.831 sec T(BLAS)=    0.000 NAv(S)=3143120.3 NMax(S)=720905
   Maximum residual norm  :     0.000000033374

                       ****Iteration   14****
  T(sigma)= 19192.743 sec T(BLAS)=    0.000 NAv(S)=3143120.3 NMax(S)=720905

         *** CONVERGENCE OF ENERGIES REACHED ***
STATE   0 MULT= 3: E=   -150.1223249979 Eh W=  0.1000 DE= 0.000 eV      0.0 cm**-1
      0.88190 (-0.939092930) CSF = 2 2 2 2 2 1+1+0 0 0 0 0 0 0 0 0 0 0 0 0 0 0 0 0 0 0 0 0 0 0 0 0 0 0 0 0 0 0 0 0 0 0 0 0 0 0 0 0 0 0 0 0 0 0 0 0 0 0 0 0 
      0.01294 ( 0.113766580) CSF = 2 2 2 1+1+2 2 0 0 0 0 0 0 0 0 0 0 0 0 0 0 0 0 0 0 0 0 0 0 0 0 0 0 0 0 0 0 0 0 0 0 0 0 0 0 0 0 0 0 0 0 0 0 0 0 0 0 0 0 0 
      0.00279 (-0.052805772) CSF = 2 2 1+1+2 1+2 0 0 0 0 0 0 0 1-0 0 0 0 0 0 0 0 0 0 0 0 0 0 0 0 0 0 0 0 0 0 0 0 0 0 0 0 0 0 0 0 0 0 0 0 0 0 0 0 0 0 0 0 0 
      0.00279 (-0.052797442) CSF = 2 2 1+2 1+2 1+0 0 0 0 0 0 0 1-0 0 0 0 0 0 0 0 0 0 0 0 0 0 0 0 0 0 0 0 0 0 0 0 0 0 0 0 0 0 0 0 0 0 0 0 0 0 0 0 0 0 0 0 0 
      0.00256 ( 0.050596373) CSF = 2 2 0 2 2 1+1+0 0 0 0 0 0 0 2 0 0 0 0 0 0 0 0 0 0 0 0 0 0 0 0 0 0 0 0 0 0 0 0 0 0 0 0 0 0 0 0 0 0 0 0 0 0 0 0 0 0 0 0 0 

STATE   1 MULT= 3: E=   -149.8935785371 Eh W=  0.1000 DE= 6.225 eV  50204.0 cm**-1
      0.46104 (-0.678999084) CSF = 2 2 2 1+2 2 1+0 0 0 0 0 0 0 0 0 0 0 0 0 0 0 0 0 0 0 0 0 0 0 0 0 0 0 0 0 0 0 0 0 0 0 0 0 0 0 0 0 0 0 0 0 0 0 0 0 0 0 0 0 
      0.42024 (-0.648259457) CSF = 2 2 2 2 1+1+2 0 0 0 0 0 0 0 0 0 0 0 0 0 0 0 0 0 0 0 0 0 0 0 0 0 0 0 0 0 0 0 0 0 0 0 0 0 0 0 0 0 0 0 0 0 0 0 0 0 0 0 0 0 
      0.01366 ( 0.116870698) CSF = 2 2 2 2 1+2 1+0 0 0 0 0 0 0 0 0 0 0 0 0 0 0 0 0 0 0 0 0 0 0 0 0 0 0 0 0 0 0 0 0 0 0 0 0 0 0 0 0 0 0 0 0 0 0 0 0 0 0 0 0 
      0.01364 (-0.116795088) CSF = 2 2 2 1+2 1+2 0 0 0 0 0 0 0 0 0 0 0 0 0 0 0 0 0 0 0 0 0 0 0 0 0 0 0 0 0 0 0 0 0 0 0 0 0 0 0 0 0 0 0 0 0 0 0 0 0 0 0 0 0 

STATE   2 MULT= 3: E=   -149.8931887149 Eh W=  0.1000 DE= 6.235 eV  50289.6 cm**-1
      0.44094 (-0.664032686) CSF = 2 2 2 2 1+2 1+0 0 0 0 0 0 0 0 0 0 0 0 0 0 0 0 0 0 0 0 0 0 0 0 0 0 0 0 0 0 0 0 0 0 0 0 0 0 0 0 0 0 0 0 0 0 0 0 0 0 0 0 0 
      0.44034 ( 0.663578339) CSF = 2 2 2 1+2 1+2 0 0 0 0 0 0 0 0 0 0 0 0 0 0 0 0 0 0 0 0 0 0 0 0 0 0 0 0 0 0 0 0 0 0 0 0 0 0 0 0 0 0 0 0 0 0 0 0 0 0 0 0 0 
      0.01480 (-0.121656128) CSF = 2 2 2 2 1+1+2 0 0 0 0 0 0 0 0 0 0 0 0 0 0 0 0 0 0 0 0 0 0 0 0 0 0 0 0 0 0 0 0 0 0 0 0 0 0 0 0 0 0 0 0 0 0 0 0 0 0 0 0 0 
      0.01261 (-0.112283789) CSF = 2 2 2 1+2 2 1+0 0 0 0 0 0 0 0 0 0 0 0 0 0 0 0 0 0 0 0 0 0 0 0 0 0 0 0 0 0 0 0 0 0 0 0 0 0 0 0 0 0 0 0 0 0 0 0 0 0 0 0 0 

STATE   3 MULT= 3: E=   -149.8883914739 Eh W=  0.1000 DE= 6.366 eV  51342.5 cm**-1
      0.47386 (-0.688374184) CSF = 2 2 2 2 1+1+2 0 0 0 0 0 0 0 0 0 0 0 0 0 0 0 0 0 0 0 0 0 0 0 0 0 0 0 0 0 0 0 0 0 0 0 0 0 0 0 0 0 0 0 0 0 0 0 0 0 0 0 0 0 
      0.43516 ( 0.659669178) CSF = 2 2 2 1+2 2 1+0 0 0 0 0 0 0 0 0 0 0 0 0 0 0 0 0 0 0 0 0 0 0 0 0 0 0 0 0 0 0 0 0 0 0 0 0 0 0 0 0 0 0 0 0 0 0 0 0 0 0 0 0 

STATE   4 MULT= 3: E=   -149.7958230875 Eh W=  0.1000 DE= 8.885 eV  71658.9 cm**-1
      0.38896 (-0.623665781) CSF = 2 2 2 1+2 1+2 0 0 0 0 0 0 0 0 0 0 0 0 0 0 0 0 0 0 0 0 0 0 0 0 0 0 0 0 0 0 0 0 0 0 0 0 0 0 0 0 0 0 0 0 0 0 0 0 0 0 0 0 0 
      0.38832 (-0.623156340) CSF = 2 2 2 2 1+2 1+0 0 0 0 0 0 0 0 0 0 0 0 0 0 0 0 0 0 0 0 0 0 0 0 0 0 0 0 0 0 0 0 0 0 0 0 0 0 0 0 0 0 0 0 0 0 0 0 0 0 0 0 0 
      0.01582 (-0.125789889) CSF = 2 2 1+2 2 1-1+0 0 0 0 0 0 0 1+0 0 0 0 0 0 0 0 0 0 0 0 0 0 0 0 0 0 0 0 0 0 0 0 0 0 0 0 0 0 0 0 0 0 0 0 0 0 0 0 0 0 0 0 0 
      0.01501 (-0.122501138) CSF = 2 2 1+2 2 1+1+0 0 0 0 0 0 0 1-0 0 0 0 0 0 0 0 0 0 0 0 0 0 0 0 0 0 0 0 0 0 0 0 0 0 0 0 0 0 0 0 0 0 0 0 0 0 0 0 0 0 0 0 0 
      0.01159 ( 0.107665503) CSF = 2 2 1+2 2 1+1+1-0 0 0 0 0 0 0 0 0 0 0 0 0 0 0 0 0 0 0 0 0 0 0 0 0 0 0 0 0 0 0 0 0 0 0 0 0 0 0 0 0 0 0 0 0 0 0 0 0 0 0 0 
      0.01089 ( 0.104344033) CSF = 2 2 2 2 2 1+0 0 0 1+0 0 0 0 0 0 0 0 0 0 0 0 0 0 0 0 0 0 0 0 0 0 0 0 0 0 0 0 0 0 0 0 0 0 0 0 0 0 0 0 0 0 0 0 0 0 0 0 0 0 
      0.01086 (-0.104223668) CSF = 2 2 2 2 2 0 1+0 0 0 1+0 0 0 0 0 0 0 0 0 0 0 0 0 0 0 0 0 0 0 0 0 0 0 0 0 0 0 0 0 0 0 0 0 0 0 0 0 0 0 0 0 0 0 0 0 0 0 0 0 
      0.00865 ( 0.093012684) CSF = 2 2 1+2 2 1-1+1+0 0 0 0 0 0 0 0 0 0 0 0 0 0 0 0 0 0 0 0 0 0 0 0 0 0 0 0 0 0 0 0 0 0 0 0 0 0 0 0 0 0 0 0 0 0 0 0 0 0 0 0 
      0.00633 (-0.079552377) CSF = 2 2 1+1+1+2 2 0 0 0 0 0 0 0 1-0 0 0 0 0 0 0 0 0 0 0 0 0 0 0 0 0 0 0 0 0 0 0 0 0 0 0 0 0 0 0 0 0 0 0 0 0 0 0 0 0 0 0 0 0 
      0.00526 (-0.072556326) CSF = 2 2 1+2 2 1+1-0 0 0 0 0 0 0 1+0 0 0 0 0 0 0 0 0 0 0 0 0 0 0 0 0 0 0 0 0 0 0 0 0 0 0 0 0 0 0 0 0 0 0 0 0 0 0 0 0 0 0 0 0 
      0.00457 (-0.067629703) CSF = 2 2 2 2 2 1+0 0 0 0 1+0 0 0 0 0 0 0 0 0 0 0 0 0 0 0 0 0 0 0 0 0 0 0 0 0 0 0 0 0 0 0 0 0 0 0 0 0 0 0 0 0 0 0 0 0 0 0 0 0 
      0.00456 (-0.067542241) CSF = 2 2 2 2 2 0 1+0 0 1+0 0 0 0 0 0 0 0 0 0 0 0 0 0 0 0 0 0 0 0 0 0 0 0 0 0 0 0 0 0 0 0 0 0 0 0 0 0 0 0 0 0 0 0 0 0 0 0 0 0 
      0.00354 (-0.059521754) CSF = 2 2 1+1-1+2 2 0 0 0 0 0 0 0 1+0 0 0 0 0 0 0 0 0 0 0 0 0 0 0 0 0 0 0 0 0 0 0 0 0 0 0 0 0 0 0 0 0 0 0 0 0 0 0 0 0 0 0 0 0 
      0.00288 ( 0.053640713) CSF = 2 2 1+2 2 1+1-1+0 0 0 0 0 0 0 0 0 0 0 0 0 0 0 0 0 0 0 0 0 0 0 0 0 0 0 0 0 0 0 0 0 0 0 0 0 0 0 0 0 0 0 0 0 0 0 0 0 0 0 0 
      0.00282 (-0.053056805) CSF = 2 2 2 2 1+1+1+0 0 0 0 0 1-0 0 0 0 0 0 0 0 0 0 0 0 0 0 0 0 0 0 0 0 0 0 0 0 0 0 0 0 0 0 0 0 0 0 0 0 0 0 0 0 0 0 0 0 0 0 0 
      0.00281 (-0.053056448) CSF = 2 2 2 1+2 1+1+0 0 0 0 0 0 1-0 0 0 0 0 0 0 0 0 0 0 0 0 0 0 0 0 0 0 0 0 0 0 0 0 0 0 0 0 0 0 0 0 0 0 0 0 0 0 0 0 0 0 0 0 0 

Resetting TVAR
   # of selected  CSFs                        ... 8488108
   # of generator CSFs                        ...    677
   # of NEW generator CSFs                    ...     91
   # of S+D CSFs generated                    ... 32370498
   Selecting from the generated CSFs          ...    # of CSFs after Selection                  ... 9609927
   # of NEW selected CSFs                     ... 1121819
   maximum energy change                ... 6.765e-02 Eh

                  **********************************
                  *  ICECI/CSF MACROITERATION   3  *
                  **********************************

   # of selected CSFs                    ... 9609927

                       ****Iteration    0****
  T(sigma)= 50921.729 sec T(BLAS)=    0.000 NAv(S)=3286868.9 NMax(S)=824767
   Maximum residual norm  :     0.009604182815

                       ****Iteration    1****
  T(sigma)= 50876.718 sec T(BLAS)=    0.000 NAv(S)=3286868.9 NMax(S)=824767
   Maximum residual norm  :     0.000130481927
WARNING: Failed to orthogonalize vector 4 in Davidson
         Increasing orthogonality tolerance to              ... 1.0e-15
         Please check your results carefully!

                       ****Iteration    2****
  T(sigma)= 50446.587 sec T(BLAS)=    0.000 NAv(S)=3286868.9 NMax(S)=824767
   Maximum residual norm  :     0.000019752240

                       ****Iteration    3****
  T(sigma)= 51644.038 sec T(BLAS)=    0.000 NAv(S)=3286868.9 NMax(S)=824767
   Maximum residual norm  :     0.000004855411

                       ****Iteration    4****
  T(sigma)= 49215.588 sec T(BLAS)=    0.000 NAv(S)=3286868.9 NMax(S)=824767
   Maximum residual norm  :     0.000001128528

                       ****Iteration    5****
  T(sigma)= 48818.316 sec T(BLAS)=    0.000 NAv(S)=3286868.9 NMax(S)=824767
   Maximum residual norm  :     0.000000230925

                       ****Iteration    6****
  T(sigma)= 49984.007 sec T(BLAS)=    0.000 NAv(S)=3286868.9 NMax(S)=824767
   Maximum residual norm  :     0.000000065962

                       ****Iteration    7****
  T(sigma)= 50142.135 sec T(BLAS)=    0.000 NAv(S)=3286868.9 NMax(S)=824767
   Maximum residual norm  :     0.000000026711

                       ****Iteration    8****
  T(sigma)= 51063.519 sec T(BLAS)=    0.000 NAv(S)=3286868.9 NMax(S)=824767

         *** CONVERGENCE OF ENERGIES REACHED ***
STATE   0 MULT= 3: E=   -150.1230663332 Eh W=  0.1000 DE= 0.000 eV      0.0 cm**-1
      0.88126 (-0.938757130) CSF = 2 2 2 2 2 1+1+0 0 0 0 0 0 0 0 0 0 0 0 0 0 0 0 0 0 0 0 0 0 0 0 0 0 0 0 0 0 0 0 0 0 0 0 0 0 0 0 0 0 0 0 0 0 0 0 0 0 0 0 0 
      0.01302 ( 0.114115163) CSF = 2 2 2 1+1+2 2 0 0 0 0 0 0 0 0 0 0 0 0 0 0 0 0 0 0 0 0 0 0 0 0 0 0 0 0 0 0 0 0 0 0 0 0 0 0 0 0 0 0 0 0 0 0 0 0 0 0 0 0 0 
      0.00281 (-0.052985825) CSF = 2 2 1+1+2 1+2 0 0 0 0 0 0 0 1-0 0 0 0 0 0 0 0 0 0 0 0 0 0 0 0 0 0 0 0 0 0 0 0 0 0 0 0 0 0 0 0 0 0 0 0 0 0 0 0 0 0 0 0 0 
      0.00281 (-0.052982244) CSF = 2 2 1+2 1+2 1+0 0 0 0 0 0 0 1-0 0 0 0 0 0 0 0 0 0 0 0 0 0 0 0 0 0 0 0 0 0 0 0 0 0 0 0 0 0 0 0 0 0 0 0 0 0 0 0 0 0 0 0 0 
      0.00257 ( 0.050741795) CSF = 2 2 0 2 2 1+1+0 0 0 0 0 0 0 2 0 0 0 0 0 0 0 0 0 0 0 0 0 0 0 0 0 0 0 0 0 0 0 0 0 0 0 0 0 0 0 0 0 0 0 0 0 0 0 0 0 0 0 0 0 

STATE   1 MULT= 3: E=   -149.8945126210 Eh W=  0.1000 DE= 6.219 eV  50161.7 cm**-1
      0.45351 (-0.673429063) CSF = 2 2 2 1+2 2 1+0 0 0 0 0 0 0 0 0 0 0 0 0 0 0 0 0 0 0 0 0 0 0 0 0 0 0 0 0 0 0 0 0 0 0 0 0 0 0 0 0 0 0 0 0 0 0 0 0 0 0 0 0 
      0.44439 (-0.666627518) CSF = 2 2 2 2 1+1+2 0 0 0 0 0 0 0 0 0 0 0 0 0 0 0 0 0 0 0 0 0 0 0 0 0 0 0 0 0 0 0 0 0 0 0 0 0 0 0 0 0 0 0 0 0 0 0 0 0 0 0 0 0 
      0.00503 (-0.070954626) CSF = 2 2 2 1+2 1+2 0 0 0 0 0 0 0 0 0 0 0 0 0 0 0 0 0 0 0 0 0 0 0 0 0 0 0 0 0 0 0 0 0 0 0 0 0 0 0 0 0 0 0 0 0 0 0 0 0 0 0 0 0 
      0.00503 ( 0.070905552) CSF = 2 2 2 2 1+2 1+0 0 0 0 0 0 0 0 0 0 0 0 0 0 0 0 0 0 0 0 0 0 0 0 0 0 0 0 0 0 0 0 0 0 0 0 0 0 0 0 0 0 0 0 0 0 0 0 0 0 0 0 0 

STATE   2 MULT= 3: E=   -149.8942292947 Eh W=  0.1000 DE= 6.227 eV  50223.9 cm**-1
      0.44945 (-0.670412671) CSF = 2 2 2 2 1+2 1+0 0 0 0 0 0 0 0 0 0 0 0 0 0 0 0 0 0 0 0 0 0 0 0 0 0 0 0 0 0 0 0 0 0 0 0 0 0 0 0 0 0 0 0 0 0 0 0 0 0 0 0 0 
      0.44848 ( 0.669688866) CSF = 2 2 2 1+2 1+2 0 0 0 0 0 0 0 0 0 0 0 0 0 0 0 0 0 0 0 0 0 0 0 0 0 0 0 0 0 0 0 0 0 0 0 0 0 0 0 0 0 0 0 0 0 0 0 0 0 0 0 0 0 
      0.00509 (-0.071324013) CSF = 2 2 2 2 1+1+2 0 0 0 0 0 0 0 0 0 0 0 0 0 0 0 0 0 0 0 0 0 0 0 0 0 0 0 0 0 0 0 0 0 0 0 0 0 0 0 0 0 0 0 0 0 0 0 0 0 0 0 0 0 
      0.00498 (-0.070535324) CSF = 2 2 2 1+2 2 1+0 0 0 0 0 0 0 0 0 0 0 0 0 0 0 0 0 0 0 0 0 0 0 0 0 0 0 0 0 0 0 0 0 0 0 0 0 0 0 0 0 0 0 0 0 0 0 0 0 0 0 0 0 

STATE   3 MULT= 3: E=   -149.8893648313 Eh W=  0.1000 DE= 6.359 eV  51291.6 cm**-1
      0.45872 (-0.677288820) CSF = 2 2 2 2 1+1+2 0 0 0 0 0 0 0 0 0 0 0 0 0 0 0 0 0 0 0 0 0 0 0 0 0 0 0 0 0 0 0 0 0 0 0 0 0 0 0 0 0 0 0 0 0 0 0 0 0 0 0 0 0 
      0.44973 ( 0.670621155) CSF = 2 2 2 1+2 2 1+0 0 0 0 0 0 0 0 0 0 0 0 0 0 0 0 0 0 0 0 0 0 0 0 0 0 0 0 0 0 0 0 0 0 0 0 0 0 0 0 0 0 0 0 0 0 0 0 0 0 0 0 0 

STATE   4 MULT= 3: E=   -149.7966025436 Eh W=  0.1000 DE= 8.884 eV  71650.5 cm**-1
      0.38885 (-0.623580896) CSF = 2 2 2 1+2 1+2 0 0 0 0 0 0 0 0 0 0 0 0 0 0 0 0 0 0 0 0 0 0 0 0 0 0 0 0 0 0 0 0 0 0 0 0 0 0 0 0 0 0 0 0 0 0 0 0 0 0 0 0 0 
      0.38784 (-0.622766462) CSF = 2 2 2 2 1+2 1+0 0 0 0 0 0 0 0 0 0 0 0 0 0 0 0 0 0 0 0 0 0 0 0 0 0 0 0 0 0 0 0 0 0 0 0 0 0 0 0 0 0 0 0 0 0 0 0 0 0 0 0 0 
      0.01581 (-0.125718038) CSF = 2 2 1+2 2 1-1+0 0 0 0 0 0 0 1+0 0 0 0 0 0 0 0 0 0 0 0 0 0 0 0 0 0 0 0 0 0 0 0 0 0 0 0 0 0 0 0 0 0 0 0 0 0 0 0 0 0 0 0 0 
      0.01496 (-0.122316326) CSF = 2 2 1+2 2 1+1+0 0 0 0 0 0 0 1-0 0 0 0 0 0 0 0 0 0 0 0 0 0 0 0 0 0 0 0 0 0 0 0 0 0 0 0 0 0 0 0 0 0 0 0 0 0 0 0 0 0 0 0 0 
      0.01158 ( 0.107625194) CSF = 2 2 1+2 2 1+1+1-0 0 0 0 0 0 0 0 0 0 0 0 0 0 0 0 0 0 0 0 0 0 0 0 0 0 0 0 0 0 0 0 0 0 0 0 0 0 0 0 0 0 0 0 0 0 0 0 0 0 0 0 
      0.01093 ( 0.104567059) CSF = 2 2 2 2 2 1+0 0 0 1+0 0 0 0 0 0 0 0 0 0 0 0 0 0 0 0 0 0 0 0 0 0 0 0 0 0 0 0 0 0 0 0 0 0 0 0 0 0 0 0 0 0 0 0 0 0 0 0 0 0 
      0.01093 (-0.104526977) CSF = 2 2 2 2 2 0 1+0 0 0 1+0 0 0 0 0 0 0 0 0 0 0 0 0 0 0 0 0 0 0 0 0 0 0 0 0 0 0 0 0 0 0 0 0 0 0 0 0 0 0 0 0 0 0 0 0 0 0 0 0 
      0.00861 ( 0.092803357) CSF = 2 2 1+2 2 1-1+1+0 0 0 0 0 0 0 0 0 0 0 0 0 0 0 0 0 0 0 0 0 0 0 0 0 0 0 0 0 0 0 0 0 0 0 0 0 0 0 0 0 0 0 0 0 0 0 0 0 0 0 0 
      0.00632 (-0.079489322) CSF = 2 2 1+1+1+2 2 0 0 0 0 0 0 0 1-0 0 0 0 0 0 0 0 0 0 0 0 0 0 0 0 0 0 0 0 0 0 0 0 0 0 0 0 0 0 0 0 0 0 0 0 0 0 0 0 0 0 0 0 0 
      0.00527 (-0.072575132) CSF = 2 2 1+2 2 1+1-0 0 0 0 0 0 0 1+0 0 0 0 0 0 0 0 0 0 0 0 0 0 0 0 0 0 0 0 0 0 0 0 0 0 0 0 0 0 0 0 0 0 0 0 0 0 0 0 0 0 0 0 0 
      0.00460 (-0.067787051) CSF = 2 2 2 2 2 0 1+0 0 1+0 0 0 0 0 0 0 0 0 0 0 0 0 0 0 0 0 0 0 0 0 0 0 0 0 0 0 0 0 0 0 0 0 0 0 0 0 0 0 0 0 0 0 0 0 0 0 0 0 0 
      0.00459 (-0.067778822) CSF = 2 2 2 2 2 1+0 0 0 0 1+0 0 0 0 0 0 0 0 0 0 0 0 0 0 0 0 0 0 0 0 0 0 0 0 0 0 0 0 0 0 0 0 0 0 0 0 0 0 0 0 0 0 0 0 0 0 0 0 0 
      0.00354 (-0.059536509) CSF = 2 2 1+1-1+2 2 0 0 0 0 0 0 0 1+0 0 0 0 0 0 0 0 0 0 0 0 0 0 0 0 0 0 0 0 0 0 0 0 0 0 0 0 0 0 0 0 0 0 0 0 0 0 0 0 0 0 0 0 0 
      0.00287 ( 0.053591114) CSF = 2 2 1+2 2 1+1-1+0 0 0 0 0 0 0 0 0 0 0 0 0 0 0 0 0 0 0 0 0 0 0 0 0 0 0 0 0 0 0 0 0 0 0 0 0 0 0 0 0 0 0 0 0 0 0 0 0 0 0 0 
      0.00282 (-0.053080805) CSF = 2 2 2 2 1+1+1+0 0 0 0 0 1-0 0 0 0 0 0 0 0 0 0 0 0 0 0 0 0 0 0 0 0 0 0 0 0 0 0 0 0 0 0 0 0 0 0 0 0 0 0 0 0 0 0 0 0 0 0 0 
      0.00282 (-0.053075806) CSF = 2 2 2 1+2 1+1+0 0 0 0 0 0 1-0 0 0 0 0 0 0 0 0 0 0 0 0 0 0 0 0 0 0 0 0 0 0 0 0 0 0 0 0 0 0 0 0 0 0 0 0 0 0 0 0 0 0 0 0 0 

Resetting TVAR
   # of selected  CSFs                        ... 9609865
   # of generator CSFs                        ...    682
   # of NEW generator CSFs                    ...      5
   # of S+D CSFs generated                    ... 2704523
   Selecting from the generated CSFs          ...    # of CSFs after Selection                  ... 9663414
   # of NEW selected CSFs                     ...  53549
   maximum energy change                ... 1.018e-03 Eh

                  **********************************
                  *  ICECI/CSF MACROITERATION   4  *
                  **********************************

   # of selected CSFs                    ... 9663414

                       ****Iteration    0****
  T(sigma)= 50185.915 sec T(BLAS)=    0.000 NAv(S)=3292508.7 NMax(S)=760965
   Maximum residual norm  :     0.000836398079

                       ****Iteration    1****
  T(sigma)= 50834.172 sec T(BLAS)=    0.000 NAv(S)=3292508.7 NMax(S)=760965
   Maximum residual norm  :     0.000008607422
WARNING: Failed to orthogonalize vector 2 in Davidson
         Increasing orthogonality tolerance to              ... 1.0e-15
         Please check your results carefully!

                       ****Iteration    2****
  T(sigma)= 49816.877 sec T(BLAS)=    0.000 NAv(S)=3292508.7 NMax(S)=760965
   Maximum residual norm  :     0.000001091760

                       ****Iteration    3****
  T(sigma)= 49165.383 sec T(BLAS)=    0.000 NAv(S)=3292508.7 NMax(S)=760965
   Maximum residual norm  :     0.000000183936

                       ****Iteration    4****
  T(sigma)= 49125.059 sec T(BLAS)=    0.000 NAv(S)=3292508.7 NMax(S)=760965
   Maximum residual norm  :     0.000000038103

                       ****Iteration    5****
  T(sigma)= 48957.615 sec T(BLAS)=    0.000 NAv(S)=3292508.7 NMax(S)=760965

         *** CONVERGENCE OF ENERGIES REACHED ***
STATE   0 MULT= 3: E=   -150.1230694162 Eh W=  0.1000 DE= 0.000 eV      0.0 cm**-1
      0.88126 (-0.938755666) CSF = 2 2 2 2 2 1+1+0 0 0 0 0 0 0 0 0 0 0 0 0 0 0 0 0 0 0 0 0 0 0 0 0 0 0 0 0 0 0 0 0 0 0 0 0 0 0 0 0 0 0 0 0 0 0 0 0 0 0 0 0 
      0.01303 ( 0.114130238) CSF = 2 2 2 1+1+2 2 0 0 0 0 0 0 0 0 0 0 0 0 0 0 0 0 0 0 0 0 0 0 0 0 0 0 0 0 0 0 0 0 0 0 0 0 0 0 0 0 0 0 0 0 0 0 0 0 0 0 0 0 0 
      0.00281 (-0.052981925) CSF = 2 2 1+1+2 1+2 0 0 0 0 0 0 0 1-0 0 0 0 0 0 0 0 0 0 0 0 0 0 0 0 0 0 0 0 0 0 0 0 0 0 0 0 0 0 0 0 0 0 0 0 0 0 0 0 0 0 0 0 0 
      0.00281 (-0.052978533) CSF = 2 2 1+2 1+2 1+0 0 0 0 0 0 0 1-0 0 0 0 0 0 0 0 0 0 0 0 0 0 0 0 0 0 0 0 0 0 0 0 0 0 0 0 0 0 0 0 0 0 0 0 0 0 0 0 0 0 0 0 0 
      0.00257 ( 0.050742680) CSF = 2 2 0 2 2 1+1+0 0 0 0 0 0 0 2 0 0 0 0 0 0 0 0 0 0 0 0 0 0 0 0 0 0 0 0 0 0 0 0 0 0 0 0 0 0 0 0 0 0 0 0 0 0 0 0 0 0 0 0 0 

STATE   1 MULT= 3: E=   -149.8946072116 Eh W=  0.1000 DE= 6.217 eV  50141.7 cm**-1
      0.45237 ( 0.672582739) CSF = 2 2 2 1+2 2 1+0 0 0 0 0 0 0 0 0 0 0 0 0 0 0 0 0 0 0 0 0 0 0 0 0 0 0 0 0 0 0 0 0 0 0 0 0 0 0 0 0 0 0 0 0 0 0 0 0 0 0 0 0 
      0.43963 ( 0.663045737) CSF = 2 2 2 2 1+1+2 0 0 0 0 0 0 0 0 0 0 0 0 0 0 0 0 0 0 0 0 0 0 0 0 0 0 0 0 0 0 0 0 0 0 0 0 0 0 0 0 0 0 0 0 0 0 0 0 0 0 0 0 0 
      0.00795 ( 0.089168509) CSF = 2 2 2 1+2 1+2 0 0 0 0 0 0 0 0 0 0 0 0 0 0 0 0 0 0 0 0 0 0 0 0 0 0 0 0 0 0 0 0 0 0 0 0 0 0 0 0 0 0 0 0 0 0 0 0 0 0 0 0 0 
      0.00795 (-0.089142716) CSF = 2 2 2 2 1+2 1+0 0 0 0 0 0 0 0 0 0 0 0 0 0 0 0 0 0 0 0 0 0 0 0 0 0 0 0 0 0 0 0 0 0 0 0 0 0 0 0 0 0 0 0 0 0 0 0 0 0 0 0 0 

STATE   2 MULT= 3: E=   -149.8942439032 Eh W=  0.1000 DE= 6.227 eV  50221.4 cm**-1
      0.44654 ( 0.668234599) CSF = 2 2 2 2 1+2 1+0 0 0 0 0 0 0 0 0 0 0 0 0 0 0 0 0 0 0 0 0 0 0 0 0 0 0 0 0 0 0 0 0 0 0 0 0 0 0 0 0 0 0 0 0 0 0 0 0 0 0 0 0 
      0.44555 (-0.667498233) CSF = 2 2 2 1+2 1+2 0 0 0 0 0 0 0 0 0 0 0 0 0 0 0 0 0 0 0 0 0 0 0 0 0 0 0 0 0 0 0 0 0 0 0 0 0 0 0 0 0 0 0 0 0 0 0 0 0 0 0 0 0 
      0.00795 ( 0.089186746) CSF = 2 2 2 1+2 2 1+0 0 0 0 0 0 0 0 0 0 0 0 0 0 0 0 0 0 0 0 0 0 0 0 0 0 0 0 0 0 0 0 0 0 0 0 0 0 0 0 0 0 0 0 0 0 0 0 0 0 0 0 0 
      0.00794 ( 0.089126890) CSF = 2 2 2 2 1+1+2 0 0 0 0 0 0 0 0 0 0 0 0 0 0 0 0 0 0 0 0 0 0 0 0 0 0 0 0 0 0 0 0 0 0 0 0 0 0 0 0 0 0 0 0 0 0 0 0 0 0 0 0 0 

STATE   3 MULT= 3: E=   -149.8894572022 Eh W=  0.1000 DE= 6.357 eV  51272.0 cm**-1
      0.46057 (-0.678652822) CSF = 2 2 2 2 1+1+2 0 0 0 0 0 0 0 0 0 0 0 0 0 0 0 0 0 0 0 0 0 0 0 0 0 0 0 0 0 0 0 0 0 0 0 0 0 0 0 0 0 0 0 0 0 0 0 0 0 0 0 0 0 
      0.44782 ( 0.669192891) CSF = 2 2 2 1+2 2 1+0 0 0 0 0 0 0 0 0 0 0 0 0 0 0 0 0 0 0 0 0 0 0 0 0 0 0 0 0 0 0 0 0 0 0 0 0 0 0 0 0 0 0 0 0 0 0 0 0 0 0 0 0 

STATE   4 MULT= 3: E=   -149.7966154898 Eh W=  0.1000 DE= 8.883 eV  71648.4 cm**-1
      0.38885 ( 0.623578214) CSF = 2 2 2 1+2 1+2 0 0 0 0 0 0 0 0 0 0 0 0 0 0 0 0 0 0 0 0 0 0 0 0 0 0 0 0 0 0 0 0 0 0 0 0 0 0 0 0 0 0 0 0 0 0 0 0 0 0 0 0 0 
      0.38782 ( 0.622748389) CSF = 2 2 2 2 1+2 1+0 0 0 0 0 0 0 0 0 0 0 0 0 0 0 0 0 0 0 0 0 0 0 0 0 0 0 0 0 0 0 0 0 0 0 0 0 0 0 0 0 0 0 0 0 0 0 0 0 0 0 0 0 
      0.01580 ( 0.125707862) CSF = 2 2 1+2 2 1-1+0 0 0 0 0 0 0 1+0 0 0 0 0 0 0 0 0 0 0 0 0 0 0 0 0 0 0 0 0 0 0 0 0 0 0 0 0 0 0 0 0 0 0 0 0 0 0 0 0 0 0 0 0 
      0.01496 ( 0.122298447) CSF = 2 2 1+2 2 1+1+0 0 0 0 0 0 0 1-0 0 0 0 0 0 0 0 0 0 0 0 0 0 0 0 0 0 0 0 0 0 0 0 0 0 0 0 0 0 0 0 0 0 0 0 0 0 0 0 0 0 0 0 0 
      0.01158 (-0.107617056) CSF = 2 2 1+2 2 1+1+1-0 0 0 0 0 0 0 0 0 0 0 0 0 0 0 0 0 0 0 0 0 0 0 0 0 0 0 0 0 0 0 0 0 0 0 0 0 0 0 0 0 0 0 0 0 0 0 0 0 0 0 0 
      0.01094 (-0.104616220) CSF = 2 2 2 2 2 1+0 0 0 1+0 0 0 0 0 0 0 0 0 0 0 0 0 0 0 0 0 0 0 0 0 0 0 0 0 0 0 0 0 0 0 0 0 0 0 0 0 0 0 0 0 0 0 0 0 0 0 0 0 0 
      0.01094 ( 0.104591994) CSF = 2 2 2 2 2 0 1+0 0 0 1+0 0 0 0 0 0 0 0 0 0 0 0 0 0 0 0 0 0 0 0 0 0 0 0 0 0 0 0 0 0 0 0 0 0 0 0 0 0 0 0 0 0 0 0 0 0 0 0 0 
      0.00861 (-0.092781084) CSF = 2 2 1+2 2 1-1+1+0 0 0 0 0 0 0 0 0 0 0 0 0 0 0 0 0 0 0 0 0 0 0 0 0 0 0 0 0 0 0 0 0 0 0 0 0 0 0 0 0 0 0 0 0 0 0 0 0 0 0 0 
      0.00632 ( 0.079491025) CSF = 2 2 1+1+1+2 2 0 0 0 0 0 0 0 1-0 0 0 0 0 0 0 0 0 0 0 0 0 0 0 0 0 0 0 0 0 0 0 0 0 0 0 0 0 0 0 0 0 0 0 0 0 0 0 0 0 0 0 0 0 
      0.00527 ( 0.072579646) CSF = 2 2 1+2 2 1+1-0 0 0 0 0 0 0 1+0 0 0 0 0 0 0 0 0 0 0 0 0 0 0 0 0 0 0 0 0 0 0 0 0 0 0 0 0 0 0 0 0 0 0 0 0 0 0 0 0 0 0 0 0 
      0.00460 ( 0.067823968) CSF = 2 2 2 2 2 0 1+0 0 1+0 0 0 0 0 0 0 0 0 0 0 0 0 0 0 0 0 0 0 0 0 0 0 0 0 0 0 0 0 0 0 0 0 0 0 0 0 0 0 0 0 0 0 0 0 0 0 0 0 0 
      0.00460 ( 0.067800561) CSF = 2 2 2 2 2 1+0 0 0 0 1+0 0 0 0 0 0 0 0 0 0 0 0 0 0 0 0 0 0 0 0 0 0 0 0 0 0 0 0 0 0 0 0 0 0 0 0 0 0 0 0 0 0 0 0 0 0 0 0 0 
      0.00354 ( 0.059537376) CSF = 2 2 1+1-1+2 2 0 0 0 0 0 0 0 1+0 0 0 0 0 0 0 0 0 0 0 0 0 0 0 0 0 0 0 0 0 0 0 0 0 0 0 0 0 0 0 0 0 0 0 0 0 0 0 0 0 0 0 0 0 
      0.00287 (-0.053594045) CSF = 2 2 1+2 2 1+1-1+0 0 0 0 0 0 0 0 0 0 0 0 0 0 0 0 0 0 0 0 0 0 0 0 0 0 0 0 0 0 0 0 0 0 0 0 0 0 0 0 0 0 0 0 0 0 0 0 0 0 0 0 
      0.00282 ( 0.053070042) CSF = 2 2 2 2 1+1+1+0 0 0 0 0 1-0 0 0 0 0 0 0 0 0 0 0 0 0 0 0 0 0 0 0 0 0 0 0 0 0 0 0 0 0 0 0 0 0 0 0 0 0 0 0 0 0 0 0 0 0 0 0 
      0.00282 ( 0.053064527) CSF = 2 2 2 1+2 1+1+0 0 0 0 0 0 1-0 0 0 0 0 0 0 0 0 0 0 0 0 0 0 0 0 0 0 0 0 0 0 0 0 0 0 0 0 0 0 0 0 0 0 0 0 0 0 0 0 0 0 0 0 0 

Resetting TVAR
   # of selected  CSFs                        ... 9663364
   # of generator CSFs                        ...    682
   # of NEW generator CSFs                    ...      0


FINAL CIPSI ENERGIES
  Final CIPSI Energy Root   0:   -150.123069416 EH
  Final CIPSI Energy Root   1:   -149.894607212 EH
  Final CIPSI Energy Root   2:   -149.894243903 EH
  Final CIPSI Energy Root   3:   -149.889457202 EH
  Final CIPSI Energy Root   4:   -149.796615490 EH
   CI-PROBLEM SOLVED (1095506.7 sec)
   DENSITIES MADE

                       ****Iteration    0****
  T(sigma)=     0.200 sec T(BLAS)=    0.000 NAv(S)=5694.1 NMax(S)=587
   Maximum residual norm  :     0.000000000000

      *** CONVERGENCE OF RESIDUAL NORM REACHED ***
STATE   0 MULT= 1: E=   -149.6134210895 Eh W=  0.1250 DE= 0.000 eV      0.0 cm**-1
      1.00000 (-1.000000000) CSF = 2 2 2 2 2 1+1-0 0 0 0 0 0 0 0 0 0 0 0 0 0 0 0 0 0 0 0 0 0 0 0 0 0 0 0 0 0 0 0 0 0 0 0 0 0 0 0 0 0 0 0 0 0 0 0 0 0 0 0 0 

STATE   1 MULT= 1: E=   -149.6134210886 Eh W=  0.1250 DE= 0.000 eV      0.0 cm**-1
      0.50000 (-0.707106781) CSF = 2 2 2 2 2 0 2 0 0 0 0 0 0 0 0 0 0 0 0 0 0 0 0 0 0 0 0 0 0 0 0 0 0 0 0 0 0 0 0 0 0 0 0 0 0 0 0 0 0 0 0 0 0 0 0 0 0 0 0 0 
      0.50000 ( 0.707106781) CSF = 2 2 2 2 2 2 0 0 0 0 0 0 0 0 0 0 0 0 0 0 0 0 0 0 0 0 0 0 0 0 0 0 0 0 0 0 0 0 0 0 0 0 0 0 0 0 0 0 0 0 0 0 0 0 0 0 0 0 0 0 

STATE   2 MULT= 1: E=   -149.5663691151 Eh W=  0.1250 DE= 1.280 eV  10326.7 cm**-1
      0.50000 (-0.707106781) CSF = 2 2 2 2 2 2 0 0 0 0 0 0 0 0 0 0 0 0 0 0 0 0 0 0 0 0 0 0 0 0 0 0 0 0 0 0 0 0 0 0 0 0 0 0 0 0 0 0 0 0 0 0 0 0 0 0 0 0 0 0 
      0.50000 (-0.707106781) CSF = 2 2 2 2 2 0 2 0 0 0 0 0 0 0 0 0 0 0 0 0 0 0 0 0 0 0 0 0 0 0 0 0 0 0 0 0 0 0 0 0 0 0 0 0 0 0 0 0 0 0 0 0 0 0 0 0 0 0 0 0 

STATE   3 MULT= 1: E=   -149.5081741791 Eh W=  0.1250 DE= 2.864 eV  23099.0 cm**-1
      0.50000 (-0.707106617) CSF = 2 2 2 1+2 1-2 0 0 0 0 0 0 0 0 0 0 0 0 0 0 0 0 0 0 0 0 0 0 0 0 0 0 0 0 0 0 0 0 0 0 0 0 0 0 0 0 0 0 0 0 0 0 0 0 0 0 0 0 0 
      0.50000 (-0.707106617) CSF = 2 2 2 2 1+2 1-0 0 0 0 0 0 0 0 0 0 0 0 0 0 0 0 0 0 0 0 0 0 0 0 0 0 0 0 0 0 0 0 0 0 0 0 0 0 0 0 0 0 0 0 0 0 0 0 0 0 0 0 0 


                  **********************************
                  *  ICECI/CSF MACROITERATION   1  *
                  **********************************

   # of selected CSFs                    ...  64881

                       ****Iteration    0****
  T(sigma)=    10.680 sec T(BLAS)=    0.000 NAv(S)=527452.2 NMax(S)=82267
   Maximum residual norm  :     2.640784385350

                       ****Iteration    1****
  T(sigma)=    10.044 sec T(BLAS)=    0.000 NAv(S)=527452.2 NMax(S)=82267
   Maximum residual norm  :     0.318564082829

                       ****Iteration    2****
  T(sigma)=    10.221 sec T(BLAS)=    0.000 NAv(S)=527452.2 NMax(S)=82267
   Maximum residual norm  :     0.007232633788

                       ****Iteration    3****
  T(sigma)=    10.762 sec T(BLAS)=    0.000 NAv(S)=527452.2 NMax(S)=82267
   Maximum residual norm  :     0.000314461027

                       ****Iteration    4****
  T(sigma)=    10.620 sec T(BLAS)=    0.000 NAv(S)=527452.2 NMax(S)=82267
   Maximum residual norm  :     0.000031386914

                       ****Iteration    5****
  T(sigma)=    10.712 sec T(BLAS)=    0.000 NAv(S)=527452.2 NMax(S)=82267
   Maximum residual norm  :     0.000003546095

                       ****Iteration    6****
  T(sigma)=    11.378 sec T(BLAS)=    0.000 NAv(S)=527452.2 NMax(S)=82267
   Maximum residual norm  :     0.000000486570

                       ****Iteration    7****
  T(sigma)=    10.823 sec T(BLAS)=    0.000 NAv(S)=527452.2 NMax(S)=82267
   Maximum residual norm  :     0.000000056421

                       ****Iteration    8****
  T(sigma)=    10.946 sec T(BLAS)=    0.000 NAv(S)=527452.2 NMax(S)=82267
   Maximum residual norm  :     0.000000010084

                       ****Iteration    9****
  T(sigma)=    10.780 sec T(BLAS)=    0.000 NAv(S)=527452.2 NMax(S)=82267

         *** CONVERGENCE OF ENERGIES REACHED ***
STATE   0 MULT= 1: E=   -150.0436881110 Eh W=  0.1250 DE= 0.000 eV      0.0 cm**-1
      0.45345 ( 0.673385594) CSF = 2 2 2 2 2 2 0 0 0 0 0 0 0 0 0 0 0 0 0 0 0 0 0 0 0 0 0 0 0 0 0 0 0 0 0 0 0 0 0 0 0 0 0 0 0 0 0 0 0 0 0 0 0 0 0 0 0 0 0 0 
      0.45344 (-0.673381901) CSF = 2 2 2 2 2 0 2 0 0 0 0 0 0 0 0 0 0 0 0 0 0 0 0 0 0 0 0 0 0 0 0 0 0 0 0 0 0 0 0 0 0 0 0 0 0 0 0 0 0 0 0 0 0 0 0 0 0 0 0 0 
      0.00800 (-0.089429941) CSF = 2 2 2 0 2 2 2 0 0 0 0 0 0 0 0 0 0 0 0 0 0 0 0 0 0 0 0 0 0 0 0 0 0 0 0 0 0 0 0 0 0 0 0 0 0 0 0 0 0 0 0 0 0 0 0 0 0 0 0 0 
      0.00800 ( 0.089429305) CSF = 2 2 2 2 0 2 2 0 0 0 0 0 0 0 0 0 0 0 0 0 0 0 0 0 0 0 0 0 0 0 0 0 0 0 0 0 0 0 0 0 0 0 0 0 0 0 0 0 0 0 0 0 0 0 0 0 0 0 0 0 

STATE   1 MULT= 1: E=   -150.0434892565 Eh W=  0.1250 DE= 0.005 eV     43.6 cm**-1
      0.90716 ( 0.952451809) CSF = 2 2 2 2 2 1+1-0 0 0 0 0 0 0 0 0 0 0 0 0 0 0 0 0 0 0 0 0 0 0 0 0 0 0 0 0 0 0 0 0 0 0 0 0 0 0 0 0 0 0 0 0 0 0 0 0 0 0 0 0 
      0.01569 ( 0.125242652) CSF = 2 2 2 1+1-2 2 0 0 0 0 0 0 0 0 0 0 0 0 0 0 0 0 0 0 0 0 0 0 0 0 0 0 0 0 0 0 0 0 0 0 0 0 0 0 0 0 0 0 0 0 0 0 0 0 0 0 0 0 0 

STATE   2 MULT= 1: E=   -150.0128864934 Eh W=  0.1250 DE= 0.838 eV   6760.2 cm**-1
      0.44777 (-0.669159900) CSF = 2 2 2 2 2 0 2 0 0 0 0 0 0 0 0 0 0 0 0 0 0 0 0 0 0 0 0 0 0 0 0 0 0 0 0 0 0 0 0 0 0 0 0 0 0 0 0 0 0 0 0 0 0 0 0 0 0 0 0 0 
      0.44777 (-0.669156076) CSF = 2 2 2 2 2 2 0 0 0 0 0 0 0 0 0 0 0 0 0 0 0 0 0 0 0 0 0 0 0 0 0 0 0 0 0 0 0 0 0 0 0 0 0 0 0 0 0 0 0 0 0 0 0 0 0 0 0 0 0 0 
      0.01272 ( 0.112794074) CSF = 2 2 2 2 0 2 2 0 0 0 0 0 0 0 0 0 0 0 0 0 0 0 0 0 0 0 0 0 0 0 0 0 0 0 0 0 0 0 0 0 0 0 0 0 0 0 0 0 0 0 0 0 0 0 0 0 0 0 0 0 
      0.01272 ( 0.112793567) CSF = 2 2 2 0 2 2 2 0 0 0 0 0 0 0 0 0 0 0 0 0 0 0 0 0 0 0 0 0 0 0 0 0 0 0 0 0 0 0 0 0 0 0 0 0 0 0 0 0 0 0 0 0 0 0 0 0 0 0 0 0 
      0.00302 ( 0.054931120) CSF = 2 0 2 2 2 2 2 0 0 0 0 0 0 0 0 0 0 0 0 0 0 0 0 0 0 0 0 0 0 0 0 0 0 0 0 0 0 0 0 0 0 0 0 0 0 0 0 0 0 0 0 0 0 0 0 0 0 0 0 0 

STATE   3 MULT= 1: E=   -149.8796421903 Eh W=  0.1250 DE= 4.464 eV  36003.9 cm**-1
      0.46235 (-0.679961932) CSF = 2 2 2 2 1+2 1-0 0 0 0 0 0 0 0 0 0 0 0 0 0 0 0 0 0 0 0 0 0 0 0 0 0 0 0 0 0 0 0 0 0 0 0 0 0 0 0 0 0 0 0 0 0 0 0 0 0 0 0 0 
      0.46226 (-0.679897825) CSF = 2 2 2 1+2 1-2 0 0 0 0 0 0 0 0 0 0 0 0 0 0 0 0 0 0 0 0 0 0 0 0 0 0 0 0 0 0 0 0 0 0 0 0 0 0 0 0 0 0 0 0 0 0 0 0 0 0 0 0 0 

Resetting TVAR
   # of selected  CSFs                        ...  64881
   # of generator CSFs                        ...    465
   # of NEW generator CSFs                    ...    460
   # of S+D CSFs generated                    ... 44420861
   Selecting from the generated CSFs          ...    # of CSFs after Selection                  ... 4990905
   # of NEW selected CSFs                     ... 4926024

                  **********************************
                  *  ICECI/CSF MACROITERATION   2  *
                  **********************************

   # of selected CSFs                    ... 4990905

                       ****Iteration    0****
  T(sigma)=  8090.537 sec T(BLAS)=    0.000 NAv(S)=1793919.5 NMax(S)=375718
   Maximum residual norm  :     0.370833313911

                       ****Iteration    1****
  T(sigma)=  8103.607 sec T(BLAS)=    0.000 NAv(S)=1793919.5 NMax(S)=375718
   Maximum residual norm  :     0.036530721214

                       ****Iteration    2****
  T(sigma)=  8195.625 sec T(BLAS)=    0.000 NAv(S)=1793919.5 NMax(S)=375718
   Maximum residual norm  :     0.007012448250
WARNING: Failed to orthogonalize vector 1 in Davidson
         Increasing orthogonality tolerance to              ... 1.0e-15
         Please check your results carefully!

                       ****Iteration    3****
  T(sigma)=  8135.749 sec T(BLAS)=    0.000 NAv(S)=1793919.5 NMax(S)=375718
   Maximum residual norm  :     0.001503349791

                       ****Iteration    4****
  T(sigma)=  8157.363 sec T(BLAS)=    0.000 NAv(S)=1793919.5 NMax(S)=375718
   Maximum residual norm  :     0.000346047622

                       ****Iteration    5****
  T(sigma)=  8194.801 sec T(BLAS)=    0.000 NAv(S)=1793919.5 NMax(S)=375718
   Maximum residual norm  :     0.000086921737

                       ****Iteration    6****
  T(sigma)=  8171.359 sec T(BLAS)=    0.000 NAv(S)=1793919.5 NMax(S)=375718
   Maximum residual norm  :     0.000016753452

                       ****Iteration    7****
  T(sigma)=  8120.082 sec T(BLAS)=    0.000 NAv(S)=1793919.5 NMax(S)=375718
   Maximum residual norm  :     0.000003143796

                       ****Iteration    8****
  T(sigma)=  8111.343 sec T(BLAS)=    0.000 NAv(S)=1793919.5 NMax(S)=375718
   Maximum residual norm  :     0.000000563922

                       ****Iteration    9****
  T(sigma)=  8084.940 sec T(BLAS)=    0.000 NAv(S)=1793919.5 NMax(S)=375718
   Maximum residual norm  :     0.000000105547
   Rebuilding the expansion space

                       ****Iteration   10****
  T(sigma)=  8164.255 sec T(BLAS)=    0.000 NAv(S)=1793919.5 NMax(S)=375718
   Maximum residual norm  :     0.000000023942

                       ****Iteration   11****
  T(sigma)=  8134.392 sec T(BLAS)=    0.000 NAv(S)=1793919.5 NMax(S)=375718

         *** CONVERGENCE OF ENERGIES REACHED ***
STATE   0 MULT= 1: E=   -150.0886605748 Eh W=  0.1250 DE= 0.000 eV      0.0 cm**-1
      0.43386 (-0.658683879) CSF = 2 2 2 2 2 0 2 0 0 0 0 0 0 0 0 0 0 0 0 0 0 0 0 0 0 0 0 0 0 0 0 0 0 0 0 0 0 0 0 0 0 0 0 0 0 0 0 0 0 0 0 0 0 0 0 0 0 0 0 0 
      0.43322 ( 0.658197604) CSF = 2 2 2 2 2 2 0 0 0 0 0 0 0 0 0 0 0 0 0 0 0 0 0 0 0 0 0 0 0 0 0 0 0 0 0 0 0 0 0 0 0 0 0 0 0 0 0 0 0 0 0 0 0 0 0 0 0 0 0 0 
      0.01541 ( 0.124157094) CSF = 2 2 2 2 0 2 2 0 0 0 0 0 0 0 0 0 0 0 0 0 0 0 0 0 0 0 0 0 0 0 0 0 0 0 0 0 0 0 0 0 0 0 0 0 0 0 0 0 0 0 0 0 0 0 0 0 0 0 0 0 
      0.01539 (-0.124056381) CSF = 2 2 2 0 2 2 2 0 0 0 0 0 0 0 0 0 0 0 0 0 0 0 0 0 0 0 0 0 0 0 0 0 0 0 0 0 0 0 0 0 0 0 0 0 0 0 0 0 0 0 0 0 0 0 0 0 0 0 0 0 

STATE   1 MULT= 1: E=   -150.0877408911 Eh W=  0.1250 DE= 0.025 eV    201.8 cm**-1
      0.86742 (-0.931354302) CSF = 2 2 2 2 2 1+1-0 0 0 0 0 0 0 0 0 0 0 0 0 0 0 0 0 0 0 0 0 0 0 0 0 0 0 0 0 0 0 0 0 0 0 0 0 0 0 0 0 0 0 0 0 0 0 0 0 0 0 0 0 
      0.03095 (-0.175934825) CSF = 2 2 2 1+1-2 2 0 0 0 0 0 0 0 0 0 0 0 0 0 0 0 0 0 0 0 0 0 0 0 0 0 0 0 0 0 0 0 0 0 0 0 0 0 0 0 0 0 0 0 0 0 0 0 0 0 0 0 0 0 
      0.00258 ( 0.050773716) CSF = 2 2 0 2 2 1+1-0 0 0 0 0 0 0 2 0 0 0 0 0 0 0 0 0 0 0 0 0 0 0 0 0 0 0 0 0 0 0 0 0 0 0 0 0 0 0 0 0 0 0 0 0 0 0 0 0 0 0 0 0 

STATE   2 MULT= 1: E=   -150.0638790361 Eh W=  0.1250 DE= 0.674 eV   5438.9 cm**-1
      0.42476 ( 0.651737587) CSF = 2 2 2 2 2 2 0 0 0 0 0 0 0 0 0 0 0 0 0 0 0 0 0 0 0 0 0 0 0 0 0 0 0 0 0 0 0 0 0 0 0 0 0 0 0 0 0 0 0 0 0 0 0 0 0 0 0 0 0 0 
      0.42411 ( 0.651238326) CSF = 2 2 2 2 2 0 2 0 0 0 0 0 0 0 0 0 0 0 0 0 0 0 0 0 0 0 0 0 0 0 0 0 0 0 0 0 0 0 0 0 0 0 0 0 0 0 0 0 0 0 0 0 0 0 0 0 0 0 0 0 
      0.02319 (-0.152294204) CSF = 2 2 2 0 2 2 2 0 0 0 0 0 0 0 0 0 0 0 0 0 0 0 0 0 0 0 0 0 0 0 0 0 0 0 0 0 0 0 0 0 0 0 0 0 0 0 0 0 0 0 0 0 0 0 0 0 0 0 0 0 
      0.02316 (-0.152186127) CSF = 2 2 2 2 0 2 2 0 0 0 0 0 0 0 0 0 0 0 0 0 0 0 0 0 0 0 0 0 0 0 0 0 0 0 0 0 0 0 0 0 0 0 0 0 0 0 0 0 0 0 0 0 0 0 0 0 0 0 0 0 
      0.00408 (-0.063843798) CSF = 2 0 2 2 2 2 2 0 0 0 0 0 0 0 0 0 0 0 0 0 0 0 0 0 0 0 0 0 0 0 0 0 0 0 0 0 0 0 0 0 0 0 0 0 0 0 0 0 0 0 0 0 0 0 0 0 0 0 0 0 

STATE   3 MULT= 1: E=   -149.8980151940 Eh W=  0.1250 DE= 5.188 eV  41841.8 cm**-1
      0.45327 (-0.673250324) CSF = 2 2 2 2 1+2 1-0 0 0 0 0 0 0 0 0 0 0 0 0 0 0 0 0 0 0 0 0 0 0 0 0 0 0 0 0 0 0 0 0 0 0 0 0 0 0 0 0 0 0 0 0 0 0 0 0 0 0 0 0 
      0.45325 (-0.673237991) CSF = 2 2 2 1+2 1-2 0 0 0 0 0 0 0 0 0 0 0 0 0 0 0 0 0 0 0 0 0 0 0 0 0 0 0 0 0 0 0 0 0 0 0 0 0 0 0 0 0 0 0 0 0 0 0 0 0 0 0 0 0 

Resetting TVAR
   # of selected  CSFs                        ... 4990883
   # of generator CSFs                        ...    569
   # of NEW generator CSFs                    ...    106
   # of S+D CSFs generated                    ... 20408845
   Selecting from the generated CSFs          ...    # of CSFs after Selection                  ... 5936953
   # of NEW selected CSFs                     ... 946070
   maximum energy change                ... 5.098e-02 Eh

                  **********************************
                  *  ICECI/CSF MACROITERATION   3  *
                  **********************************

   # of selected CSFs                    ... 5936953

                       ****Iteration    0****
  T(sigma)= 19669.718 sec T(BLAS)=    0.000 NAv(S)=2025727.2 NMax(S)=379987
   Maximum residual norm  :     0.013147194141

                       ****Iteration    1****
  T(sigma)= 18647.437 sec T(BLAS)=    0.000 NAv(S)=2025727.2 NMax(S)=379987
   Maximum residual norm  :     0.000243801395
WARNING: Failed to orthogonalize vector 2 in Davidson
         Increasing orthogonality tolerance to              ... 1.0e-15
         Please check your results carefully!

                       ****Iteration    2****
  T(sigma)= 19060.667 sec T(BLAS)=    0.000 NAv(S)=2025727.2 NMax(S)=379987
   Maximum residual norm  :     0.000038600729

                       ****Iteration    3****
  T(sigma)= 19381.965 sec T(BLAS)=    0.000 NAv(S)=2025727.2 NMax(S)=379987
   Maximum residual norm  :     0.000008892550

                       ****Iteration    4****
  T(sigma)= 19294.444 sec T(BLAS)=    0.000 NAv(S)=2025727.2 NMax(S)=379987
   Maximum residual norm  :     0.000001731315

                       ****Iteration    5****
  T(sigma)= 19347.591 sec T(BLAS)=    0.000 NAv(S)=2025727.2 NMax(S)=379987
   Maximum residual norm  :     0.000000427806

                       ****Iteration    6****
  T(sigma)= 18921.527 sec T(BLAS)=    0.000 NAv(S)=2025727.2 NMax(S)=379987
   Maximum residual norm  :     0.000000158117

                       ****Iteration    7****
  T(sigma)= 18747.367 sec T(BLAS)=    0.000 NAv(S)=2025727.2 NMax(S)=379987
   Maximum residual norm  :     0.000000068514

                       ****Iteration    8****
  T(sigma)= 18486.747 sec T(BLAS)=    0.000 NAv(S)=2025727.2 NMax(S)=379987
   Maximum residual norm  :     0.000000019993

                       ****Iteration    9****
  T(sigma)= 19078.285 sec T(BLAS)=    0.000 NAv(S)=2025727.2 NMax(S)=379987

         *** CONVERGENCE OF ENERGIES REACHED ***
STATE   0 MULT= 1: E=   -150.0897702008 Eh W=  0.1250 DE= 0.000 eV      0.0 cm**-1
      0.43425 (-0.658973371) CSF = 2 2 2 2 2 0 2 0 0 0 0 0 0 0 0 0 0 0 0 0 0 0 0 0 0 0 0 0 0 0 0 0 0 0 0 0 0 0 0 0 0 0 0 0 0 0 0 0 0 0 0 0 0 0 0 0 0 0 0 0 
      0.43371 ( 0.658569560) CSF = 2 2 2 2 2 2 0 0 0 0 0 0 0 0 0 0 0 0 0 0 0 0 0 0 0 0 0 0 0 0 0 0 0 0 0 0 0 0 0 0 0 0 0 0 0 0 0 0 0 0 0 0 0 0 0 0 0 0 0 0 
      0.01553 ( 0.124605423) CSF = 2 2 2 2 0 2 2 0 0 0 0 0 0 0 0 0 0 0 0 0 0 0 0 0 0 0 0 0 0 0 0 0 0 0 0 0 0 0 0 0 0 0 0 0 0 0 0 0 0 0 0 0 0 0 0 0 0 0 0 0 
      0.01550 (-0.124517973) CSF = 2 2 2 0 2 2 2 0 0 0 0 0 0 0 0 0 0 0 0 0 0 0 0 0 0 0 0 0 0 0 0 0 0 0 0 0 0 0 0 0 0 0 0 0 0 0 0 0 0 0 0 0 0 0 0 0 0 0 0 0 
      0.00251 ( 0.050069855) CSF = 2 2 1+2 1+1-2 0 0 0 0 0 0 0 1-0 0 0 0 0 0 0 0 0 0 0 0 0 0 0 0 0 0 0 0 0 0 0 0 0 0 0 0 0 0 0 0 0 0 0 0 0 0 0 0 0 0 0 0 0 
      0.00250 ( 0.050040804) CSF = 2 2 1+1+2 2 1-0 0 0 0 0 0 0 1-0 0 0 0 0 0 0 0 0 0 0 0 0 0 0 0 0 0 0 0 0 0 0 0 0 0 0 0 0 0 0 0 0 0 0 0 0 0 0 0 0 0 0 0 0 

STATE   1 MULT= 1: E=   -150.0891491665 Eh W=  0.1250 DE= 0.017 eV    136.3 cm**-1
      0.86812 ( 0.931728560) CSF = 2 2 2 2 2 1+1-0 0 0 0 0 0 0 0 0 0 0 0 0 0 0 0 0 0 0 0 0 0 0 0 0 0 0 0 0 0 0 0 0 0 0 0 0 0 0 0 0 0 0 0 0 0 0 0 0 0 0 0 0 
      0.03116 ( 0.176515589) CSF = 2 2 2 1+1-2 2 0 0 0 0 0 0 0 0 0 0 0 0 0 0 0 0 0 0 0 0 0 0 0 0 0 0 0 0 0 0 0 0 0 0 0 0 0 0 0 0 0 0 0 0 0 0 0 0 0 0 0 0 0 
      0.00260 (-0.050996428) CSF = 2 2 0 2 2 1+1-0 0 0 0 0 0 0 2 0 0 0 0 0 0 0 0 0 0 0 0 0 0 0 0 0 0 0 0 0 0 0 0 0 0 0 0 0 0 0 0 0 0 0 0 0 0 0 0 0 0 0 0 0 
      0.00251 (-0.050085717) CSF = 2 2 1+1+2 1-2 0 0 0 0 0 0 0 1-0 0 0 0 0 0 0 0 0 0 0 0 0 0 0 0 0 0 0 0 0 0 0 0 0 0 0 0 0 0 0 0 0 0 0 0 0 0 0 0 0 0 0 0 0 
      0.00251 ( 0.050085370) CSF = 2 2 1+2 1+2 1-0 0 0 0 0 0 0 1-0 0 0 0 0 0 0 0 0 0 0 0 0 0 0 0 0 0 0 0 0 0 0 0 0 0 0 0 0 0 0 0 0 0 0 0 0 0 0 0 0 0 0 0 0 

STATE   2 MULT= 1: E=   -150.0650583576 Eh W=  0.1250 DE= 0.672 eV   5423.6 cm**-1
      0.42417 ( 0.651282025) CSF = 2 2 2 2 2 2 0 0 0 0 0 0 0 0 0 0 0 0 0 0 0 0 0 0 0 0 0 0 0 0 0 0 0 0 0 0 0 0 0 0 0 0 0 0 0 0 0 0 0 0 0 0 0 0 0 0 0 0 0 0 
      0.42364 ( 0.650875499) CSF = 2 2 2 2 2 0 2 0 0 0 0 0 0 0 0 0 0 0 0 0 0 0 0 0 0 0 0 0 0 0 0 0 0 0 0 0 0 0 0 0 0 0 0 0 0 0 0 0 0 0 0 0 0 0 0 0 0 0 0 0 
      0.02328 (-0.152581083) CSF = 2 2 2 0 2 2 2 0 0 0 0 0 0 0 0 0 0 0 0 0 0 0 0 0 0 0 0 0 0 0 0 0 0 0 0 0 0 0 0 0 0 0 0 0 0 0 0 0 0 0 0 0 0 0 0 0 0 0 0 0 
      0.02326 (-0.152497931) CSF = 2 2 2 2 0 2 2 0 0 0 0 0 0 0 0 0 0 0 0 0 0 0 0 0 0 0 0 0 0 0 0 0 0 0 0 0 0 0 0 0 0 0 0 0 0 0 0 0 0 0 0 0 0 0 0 0 0 0 0 0 
      0.00406 (-0.063741943) CSF = 2 0 2 2 2 2 2 0 0 0 0 0 0 0 0 0 0 0 0 0 0 0 0 0 0 0 0 0 0 0 0 0 0 0 0 0 0 0 0 0 0 0 0 0 0 0 0 0 0 0 0 0 0 0 0 0 0 0 0 0 

STATE   3 MULT= 1: E=   -149.8993287365 Eh W=  0.1250 DE= 5.182 eV  41797.1 cm**-1
      0.45311 ( 0.673134356) CSF = 2 2 2 1+2 1-2 0 0 0 0 0 0 0 0 0 0 0 0 0 0 0 0 0 0 0 0 0 0 0 0 0 0 0 0 0 0 0 0 0 0 0 0 0 0 0 0 0 0 0 0 0 0 0 0 0 0 0 0 0 
      0.45219 ( 0.672452923) CSF = 2 2 2 2 1+2 1-0 0 0 0 0 0 0 0 0 0 0 0 0 0 0 0 0 0 0 0 0 0 0 0 0 0 0 0 0 0 0 0 0 0 0 0 0 0 0 0 0 0 0 0 0 0 0 0 0 0 0 0 0 

Resetting TVAR
   # of selected  CSFs                        ... 5936907
   # of generator CSFs                        ...    575
   # of NEW generator CSFs                    ...      6
   # of S+D CSFs generated                    ... 1016044
   Selecting from the generated CSFs          ...    # of CSFs after Selection                  ... 5977830
   # of NEW selected CSFs                     ...  40923
   maximum energy change                ... 1.395e-03 Eh

                  **********************************
                  *  ICECI/CSF MACROITERATION   4  *
                  **********************************

   # of selected CSFs                    ... 5977830

                       ****Iteration    0****
  T(sigma)= 18957.213 sec T(BLAS)=    0.000 NAv(S)=2020643.9 NMax(S)=434844
   Maximum residual norm  :     0.001025541036

                       ****Iteration    1****
  T(sigma)= 19199.978 sec T(BLAS)=    0.000 NAv(S)=2020643.9 NMax(S)=434844
   Maximum residual norm  :     0.000013764565

                       ****Iteration    2****
  T(sigma)= 19153.508 sec T(BLAS)=    0.000 NAv(S)=2020643.9 NMax(S)=434844
   Maximum residual norm  :     0.000001602938

                       ****Iteration    3****
  T(sigma)= 18880.134 sec T(BLAS)=    0.000 NAv(S)=2020643.9 NMax(S)=434844
   Maximum residual norm  :     0.000000254496
WARNING: Failed to orthogonalize vector 2 in Davidson
         Increasing orthogonality tolerance to              ... 1.0e-15
         Please check your results carefully!

                       ****Iteration    4****
  T(sigma)= 19398.397 sec T(BLAS)=    0.000 NAv(S)=2020643.9 NMax(S)=434844
   Maximum residual norm  :     0.000000044926

                       ****Iteration    5****
  T(sigma)= 19618.664 sec T(BLAS)=    0.000 NAv(S)=2020643.9 NMax(S)=434844

         *** CONVERGENCE OF ENERGIES REACHED ***
STATE   0 MULT= 1: E=   -150.0898529019 Eh W=  0.1250 DE= 0.000 eV      0.0 cm**-1
      0.43424 ( 0.658967116) CSF = 2 2 2 2 2 0 2 0 0 0 0 0 0 0 0 0 0 0 0 0 0 0 0 0 0 0 0 0 0 0 0 0 0 0 0 0 0 0 0 0 0 0 0 0 0 0 0 0 0 0 0 0 0 0 0 0 0 0 0 0 
      0.43375 (-0.658594229) CSF = 2 2 2 2 2 2 0 0 0 0 0 0 0 0 0 0 0 0 0 0 0 0 0 0 0 0 0 0 0 0 0 0 0 0 0 0 0 0 0 0 0 0 0 0 0 0 0 0 0 0 0 0 0 0 0 0 0 0 0 0 
      0.01553 (-0.124607040) CSF = 2 2 2 2 0 2 2 0 0 0 0 0 0 0 0 0 0 0 0 0 0 0 0 0 0 0 0 0 0 0 0 0 0 0 0 0 0 0 0 0 0 0 0 0 0 0 0 0 0 0 0 0 0 0 0 0 0 0 0 0 
      0.01551 ( 0.124527184) CSF = 2 2 2 0 2 2 2 0 0 0 0 0 0 0 0 0 0 0 0 0 0 0 0 0 0 0 0 0 0 0 0 0 0 0 0 0 0 0 0 0 0 0 0 0 0 0 0 0 0 0 0 0 0 0 0 0 0 0 0 0 
      0.00251 (-0.050069929) CSF = 2 2 1+2 1+1-2 0 0 0 0 0 0 0 1-0 0 0 0 0 0 0 0 0 0 0 0 0 0 0 0 0 0 0 0 0 0 0 0 0 0 0 0 0 0 0 0 0 0 0 0 0 0 0 0 0 0 0 0 0 
      0.00250 (-0.050042963) CSF = 2 2 1+1+2 2 1-0 0 0 0 0 0 0 1-0 0 0 0 0 0 0 0 0 0 0 0 0 0 0 0 0 0 0 0 0 0 0 0 0 0 0 0 0 0 0 0 0 0 0 0 0 0 0 0 0 0 0 0 0 

STATE   1 MULT= 1: E=   -150.0891540243 Eh W=  0.1250 DE= 0.019 eV    153.4 cm**-1
      0.86818 (-0.931763863) CSF = 2 2 2 2 2 1+1-0 0 0 0 0 0 0 0 0 0 0 0 0 0 0 0 0 0 0 0 0 0 0 0 0 0 0 0 0 0 0 0 0 0 0 0 0 0 0 0 0 0 0 0 0 0 0 0 0 0 0 0 0 
      0.03116 (-0.176527536) CSF = 2 2 2 1+1-2 2 0 0 0 0 0 0 0 0 0 0 0 0 0 0 0 0 0 0 0 0 0 0 0 0 0 0 0 0 0 0 0 0 0 0 0 0 0 0 0 0 0 0 0 0 0 0 0 0 0 0 0 0 0 
      0.00260 ( 0.050998394) CSF = 2 2 0 2 2 1+1-0 0 0 0 0 0 0 2 0 0 0 0 0 0 0 0 0 0 0 0 0 0 0 0 0 0 0 0 0 0 0 0 0 0 0 0 0 0 0 0 0 0 0 0 0 0 0 0 0 0 0 0 0 
      0.00251 ( 0.050084431) CSF = 2 2 1+1+2 1-2 0 0 0 0 0 0 0 1-0 0 0 0 0 0 0 0 0 0 0 0 0 0 0 0 0 0 0 0 0 0 0 0 0 0 0 0 0 0 0 0 0 0 0 0 0 0 0 0 0 0 0 0 0 
      0.00251 (-0.050084223) CSF = 2 2 1+2 1+2 1-0 0 0 0 0 0 0 1-0 0 0 0 0 0 0 0 0 0 0 0 0 0 0 0 0 0 0 0 0 0 0 0 0 0 0 0 0 0 0 0 0 0 0 0 0 0 0 0 0 0 0 0 0 

STATE   2 MULT= 1: E=   -150.0651611093 Eh W=  0.1250 DE= 0.672 eV   5419.2 cm**-1
      0.42411 ( 0.651239394) CSF = 2 2 2 2 2 2 0 0 0 0 0 0 0 0 0 0 0 0 0 0 0 0 0 0 0 0 0 0 0 0 0 0 0 0 0 0 0 0 0 0 0 0 0 0 0 0 0 0 0 0 0 0 0 0 0 0 0 0 0 0 
      0.42362 ( 0.650864180) CSF = 2 2 2 2 2 0 2 0 0 0 0 0 0 0 0 0 0 0 0 0 0 0 0 0 0 0 0 0 0 0 0 0 0 0 0 0 0 0 0 0 0 0 0 0 0 0 0 0 0 0 0 0 0 0 0 0 0 0 0 0 
[...]
   4:         7443.83        0.9229       1.06e-16
   5:        12702.27        1.5749       1.18e-27
   6:        49098.27        6.0874      1.84e-103
   7:        50031.79        6.2032      2.09e-105
   8:        50031.79        6.2032      2.09e-105
   9:        50145.64        6.2173      1.21e-105
  10:        50225.37        6.2272      8.26e-106
  11:        50337.53        6.2411      4.82e-106
  12:        50337.53        6.2411      4.82e-106
  13:        51275.02        6.3573      5.38e-108
  14:        51275.02        6.3573      5.38e-108
  15:        51286.04        6.3587      5.10e-108
  16:        71649.34        8.8834      1.97e-150
  17:        71653.01        8.8838      1.93e-150
  18:        71653.01        8.8838      1.93e-150

The threshold for printing is 0.0100
Eigenvectors:
                         Weight      Real          Image    : Block Root    Spin   Ms
 STATE   0:       0.0000
                         0.999812     0.000000    -0.999906 :     0    0    1    0

 STATE   1:       3.9284
                         0.499999    -0.637498    -0.305934 :     0    0    1    1
                         0.500001    -0.637499     0.305935 :     0    0    1   -1

 STATE   2:       3.9295
                         0.500001    -0.305934     0.637499 :     0    0    1    1
                         0.499999    -0.305935    -0.637497 :     0    0    1   -1

 STATE   3:    7280.4250
                         1.000000    -1.000000    -0.000000 :     1    0    0    0

 STATE   4:    7443.8348
                         1.000000     1.000000     0.000000 :     1    1    0    0

 STATE   5:   12702.2693
                         0.999812    -0.999906     0.000000 :     1    2    0    0

 STATE   6:   49098.2713
                         0.995427     0.997711     0.000000 :     1    3    0    0

 STATE   7:   50031.7903
                         0.315171    -0.034895     0.560315 :     0    1    1    1
                         0.184784     0.429034     0.026719 :     0    2    1    1
                         0.315228    -0.034846    -0.560369 :     0    1    1   -1
                         0.184817     0.429075    -0.026682 :     0    2    1   -1

 STATE   8:   50031.7905
                         0.315227     0.560476     0.033060 :     0    1    1    1
                         0.184819     0.025314    -0.429160 :     0    2    1    1
                         0.315169     0.560200    -0.036681 :     0    1    1   -1
                         0.184785     0.028086     0.428948 :     0    2    1   -1

 STATE   9:   50145.6367
                         0.999999     0.000000     1.000000 :     0    1    1    0

 STATE  10:   50225.3737
                         1.000000    -0.000000     1.000000 :     0    2    1    0

 STATE  11:   50337.5301
                         0.184798    -0.036809    -0.428303 :     0    1    1    1
                         0.315195     0.559360    -0.048072 :     0    2    1    1
                         0.184803    -0.036400     0.428343 :     0    1    1   -1
                         0.315203     0.559413     0.047539 :     0    2    1   -1

 STATE  12:   50337.5313
                         0.184804     0.428266    -0.037318 :     0    1    1    1
                         0.315202     0.048737     0.559309 :     0    2    1    1
                         0.184800     0.428382     0.035891 :     0    1    1   -1
                         0.315194     0.046873    -0.559461 :     0    2    1   -1

 STATE  13:   51275.0165
                         0.500000     0.704523    -0.060388 :     0    3    1    1
                         0.499998     0.705002     0.054505 :     0    3    1   -1

 STATE  14:   51275.0180
                         0.499998    -0.054863    -0.704974 :     0    3    1    1
                         0.500000    -0.060029     0.704554 :     0    3    1   -1

 STATE  15:   51286.0381
                         0.995428     0.000000    -0.997712 :     0    3    1    0

 STATE  16:   71649.3374
                         1.000000     0.000000    -1.000000 :     0    4    1    0

 STATE  17:   71653.0082
                         0.500009    -0.706643     0.025777 :     0    4    1    1
                         0.499990    -0.680991     0.190373 :     0    4    1   -1

 STATE  18:   71653.0084
                         0.499990    -0.475361     0.523471 :     0    4    1    1
                         0.500009     0.339713    -0.620164 :     0    4    1   -1


--------------------------------------------
           ZERO-FIELD SPLITTING
(2ND ORDER SPIN-ORBIT COUPLING CONTRIBUTION)
--------------------------------------------

Second order D-tensor: component '0'
   -0.000000     0.000000     0.000000 
    0.000000    -0.000000    -0.000000 
    0.000000    -0.000000    -0.000000 

Second order D-tensor: component '-'
    0.000000     0.000000    -0.000000 
    0.000000     0.000000    -0.000000 
   -0.000000    -0.000000     2.389970 

Second order D-tensor: component '+'
    0.000000     0.000000     0.000000 
    0.000000     0.000000     0.000000 
    0.000000     0.000000     0.000000 

Raw matrix (cm-1):
    0.000000     0.000000    -0.000000 
    0.000000     0.000000    -0.000000 
   -0.000000    -0.000000     2.389970 

Eigenvalues (cm-1):
   -0.000000    -0.000000     2.389970 

Eigenvalues (traceless) (cm-1):
   -0.796657    -0.796657     1.593314 

Eigenvectors:
   -0.188509     0.982071     0.000000 
   -0.982071    -0.188509     0.000000 
   -0.000000     0.000000    -1.000000 

Euler angles w.r.t. molecular frame (degrees):
    -79.1342       0.0000       0.0000

D   =    2.389970  cm-1
E/D =    0.000000

Individual contributions to D-tensor:
Block  Mult  Root          D          E
    0     3     0      0.000      0.000
    0     3     1     -0.000     -0.000
    0     3     2     -0.000      0.000
    0     3     3     -0.000      0.000
    0     3     4     -0.000      0.000
    1     1     0      0.000     -0.000
    1     1     1      0.000      0.000
    1     1     2      2.390      0.000
    1     1     3      0.000     -0.000
Norm of projected state 0 of the effective Hamiltonian: 0.999812
Norm of projected state 1 of the effective Hamiltonian: 1.000000
Norm of projected state 2 of the effective Hamiltonian: 1.000000
WARNING: If the projections have norms significantly smaller than 1, the effective Hamiltonian might not be very meaningful!

--------------------------------------------------------
                  ZERO-FIELD SPLITTING
EFFECTIVE HAMILTONIAN SOC and SSC CONTRIBUTION
--------------------------------------------------------

Effective Hamiltonian from projected relativistic states and relativistic energies:

Real part:  
                  0          1          2    
      0       3.928933  -0.000000  -0.000336
      1      -0.000000   0.000000   0.000000
      2      -0.000336   0.000000   3.928933

Image part: 
                  0          1          2    
      0       0.000000   0.000000  -0.000419
      1      -0.000000   0.000000  -0.000000
      2       0.000419   0.000000   0.000000
Raw matrix (cm-1):
   -0.000336     0.000419    -0.000000 
    0.000419     0.000336    -0.000000 
   -0.000000    -0.000000     3.928933 

Eigenvalues (cm-1):
    0.000537    -0.000537     3.928933 

Eigenvalues (traceless) (cm-1):
   -1.309108    -1.310181     2.619289 

Eigenvectors:
   -0.432657     0.901559     0.000000 
   -0.901559    -0.432657     0.000000 
   -0.000000     0.000000    -1.000000 

Euler angles w.r.t. molecular frame (degrees):
    -64.3637       0.0000       0.0000

D   =    3.928933  cm-1
E/D =    0.000137

Individual contributions to D-tensor:
Block  Mult  Root          D          E
    0     3     1      0.000      0.000
    0     3     2     -0.000      0.000
    0     3     3      0.000      0.000
    0     3     4     -0.000      0.000
    1     1     0      0.000      0.000
    1     1     1      0.000     -0.000
    1     1     2      2.390     -0.000
    1     1     3      0.000      0.000

  *** Storing geometry in DTensor axis frame as mol.CAS_DTensor_HEFF_rotated.xyz  ***

--------------
CASSCF TIMINGS
--------------

Total time                       ...  1846156.8 sec
Sum of individual times          ...  1964871.9 sec (106.4%)

Calculation of AO operators
   F(Core) operator              ...        0.1 sec (  0.0%)
   G(Act) operator               ...        0.8 sec (  0.0%)
Calculation of MO transformed quantities
   J(MO) operators               ...        0.5 sec (  0.0%)
   AO->MO one electron integrals ...        0.0 sec (  0.0%)
Configuration interaction steps
   CI-setup phase                ...        0.0 sec (  0.0%)
   CI-solution phase             ...  1647296.7 sec ( 89.2%)
   Generation of densities       ...    74862.9 sec (  4.1%)
Orbital improvement steps
   Orbital gradient              ...       13.6 sec (  0.0%)
CPCM steps
   Total CPCM time               ...        0.0 sec (  0.0%)
Properties                       ...   123884.9 sec (  6.7%)
   SOC integral calculation      ...        0.4 sec (  0.0%)
   SSC RMEs (incl. integrals)    ...   113001.5 sec (  6.1%)
   SOC RMEs                      ...     5810.6 sec (  0.3%)

Maximum memory used throughout the entire CASSCF-calculation: 21655.4 MB


           ************************************************************
           *        Program running with 24 parallel MPI-processes    *
           *              working on a common directory               *
           ************************************************************

------------------------------------------------------------------------------
                         ORCA PROPERTY INTEGRAL CALCULATIONS
------------------------------------------------------------------------------

GBWName                                   ... mol.gbw
Number of atoms                           ...      2
Number of basis functions                 ...     62
Max core memory                           ...  12000 MB

Dipole integrals                          ... YES
Quadrupole integrals                      ...  NO
Linear Momentum integrals                 ...  NO
Angular Momentum integrals                ...  NO
Higher Moments length integrals           ...  NO
Higher Moments velocity integrals         ...  NO
Kinetic energy integrals                  ...  NO
GIAO Right Hand Sides                     ...  NO
SOC integrals                             ...  NO
EPR diamagnetic integrals (GIAO)          ...  NO
EPR gauge integrals                       ...  NO
Field gradient integrals                  ...  NO (   0 nuclei)
Spin-dipole/Fermi contact integrals       ...  NO (   0 nuclei)
Nucleus-orbit integrals                   ...  NO (   0 nuclei)
Geometric perturbations                   ...  NO (   2 nuclei)
Electric origin: (  0.0000,  0.0000,  1.1393) 
Magnetic origin: (  0.0000,  0.0000,  0.0000) 

Calculating integrals                     ... Electric Dipole (Length)     done (  0.0 sec)

Property integrals calculated in   0.0 sec

Maximum memory used throughout the entire PROPINT-calculation: 7.0 MB

-------------------------   --------------------
FINAL SINGLE POINT ENERGY      -149.977753395252
-------------------------   --------------------


                            ***************************************
                            *     ORCA property calculations      *
                            ***************************************

                                    ---------------------
                                    Active property flags
                                    ---------------------
   (+) Dipole Moment


------------------------------------------------------------------------------
                       ORCA ELECTRIC PROPERTIES CALCULATION
------------------------------------------------------------------------------

Dipole Moment Calculation                       ... ON
Quadrupole Moment Calculation                   ... OFF
Polarizability Calculation                      ... OFF
Atomic Dipole Moment Calculation                ... OFF
Atomic Quadrupole Moment Calculation            ... OFF
Atomic Polarizability Calculation               ... OFF
GBWName                                         ... mol.gbw
Electron density                                ... mol.scfp

The origin for moment calculation is the CENTER OF MASS  = ( 0.000000,  0.000000  1.139316)

-------------
DIPOLE MOMENT
-------------
                                X             Y             Z
Electronic contribution:     -0.00000      -0.00000      -0.00000
Nuclear contribution   :      0.00000       0.00000       0.00000
                        -----------------------------------------
Total Dipole Moment    :     -0.00000      -0.00000      -0.00000
                        -----------------------------------------
Magnitude (a.u.)       :      0.00000
Magnitude (Debye)      :      0.00000



--------------------
Rotational spectrum 
--------------------
 
Rotational constants in cm-1:     0.000000     1.449384     1.449384 
Rotational constants in MHz :     0.000000 43451.442843 43451.442843 

 Dipole components along the rotational axes: 
x,y,z [a.u.] :    -0.000000    -0.000000    -0.000000 
x,y,z [Debye]:    -0.000000    -0.000000    -0.000000 

 

                           *** CIPSI DENSITY ***

------------------------------------------------------------------------------
                       ORCA ELECTRIC PROPERTIES CALCULATION
------------------------------------------------------------------------------

Dipole Moment Calculation                       ... ON
Quadrupole Moment Calculation                   ... OFF
Polarizability Calculation                      ... OFF
Atomic Dipole Moment Calculation                ... OFF
Atomic Quadrupole Moment Calculation            ... OFF
Atomic Polarizability Calculation               ... OFF
GBWName                                         ... mol.gbw
Electron density                                ... mol.cipsip

The origin for moment calculation is the CENTER OF MASS  = ( 0.000000,  0.000000  1.139316)

-------------
DIPOLE MOMENT
-------------
                                X             Y             Z
Electronic contribution:     -0.00000      -0.00000      -0.00000
Nuclear contribution   :      0.00000       0.00000       0.00000
                        -----------------------------------------
Total Dipole Moment    :     -0.00000      -0.00000      -0.00000
                        -----------------------------------------
Magnitude (a.u.)       :      0.00000
Magnitude (Debye)      :      0.00000



--------------------
Rotational spectrum 
--------------------
 
Rotational constants in cm-1:     0.000000     1.449384     1.449384 
Rotational constants in MHz :     0.000000 43451.442843 43451.442843 

 Dipole components along the rotational axes: 
x,y,z [a.u.] :    -0.000000    -0.000000    -0.000000 
x,y,z [Debye]:    -0.000000    -0.000000    -0.000000 

 

--------------------------------
SUGGESTED CITATIONS FOR THIS RUN
--------------------------------

Below you find a list of papers that are relevant to this ORCA run
We neither can nor want to force you to cite these paper, but we appreciate if you do
You receive ORCA, which is the product of a lot of hard work by many enthusiastic individuals, for free
The only thing we kindly ask in return is that you cite our papers,
We deeply appreciate it, if you show your appreciation for ORCA by not just citing the generic ORCA reference.

Please note that relegating all ORCA citations to the supporting information does *not* help us.
SI sections are not indexed - citations you put there will not count into any citation statistics
But we need these citations in order to attract the funding resources that allow us to do what we are doing

Therefore, if you are a happy ORCA user, please consider citing a few of the papers listed below in the main body of your paper

In addition to the list printed below, the program has created the file mol.bibtex that contains the list in bibtex format
You can import this file easily into all common literature databanks and citation aid programs


List of essential papers. We consider these as the minimum necessary citations

  1. Neese,F.
     Software update: the ORCA program system, version 5.0
     WIRES Comput. Molec. Sci., 2022 12(1)e1606
     doi.org/10.1002/wcms.1606

List of papers to cite with high priority. The work reported in these papers was absolutely
necessary for this run to complete.
Our perspective: the developers of density functionals and basis sets usually get cited in chemistry papers
Good! But without the algorithms to do something with them, the functionals or basis sets would not do anything.
Hence, in our opinion, the algorithm design and method developments papers are equally worthy of getting cited

  1. Kollmar,C.; Sivalingam,K.; Helmich-Paris,B.; Angeli,C.; Neese,F.
     A perturbation-based super-CI approach for the orbital optimization of a CASSCF wave function
     J. Comput. Chem., 2019 40 1463-1470
     doi.org/10.1002/jcc.25801
  2. Neese,F.
     The SHARK Integral Generation and Digestion System
     J. Comp. Chem., 2022  1-16
     doi.org/10.1002/jcc.26942

List of suggested additional citations. These are papers that are important in the 'surrounding' of 
of this run, or papers that preceded the highly important papers. If you like your results we are grateful for a citation.

  1. Neese,F.
     The ORCA program system
     WIRES Comput. Molec. Sci., 2012 2(1)73-78
     doi.org/10.1002/wcms.81
  2. Neese,F.
     Software update: the ORCA program system, version 4.0
     WIRES Comput. Molec. Sci., 2018 8(1)1-6
     doi.org/10.1002/wcms.1327
  3. Neese,F.; Wennmohs,F.; Becker,U.; Riplinger,C.
     The ORCA quantum chemistry program package
     J. Chem. Phys., 2020 152 Art. No. L224108
     doi.org/10.1063/5.0004608

Timings for individual modules:

Sum of individual times         ...  1846161.607 sec (=30769.360 min)
GTO integral calculation        ...        0.807 sec (=   0.013 min)   0.0 %
SCF iterations                  ...        0.398 sec (=   0.007 min)   0.0 %
CASSCF iterations               ...  1846159.169 sec (=30769.319 min) 100.0 %
Property integrals              ...        1.233 sec (=   0.021 min)   0.0 %
                             ****ORCA TERMINATED NORMALLY****
TOTAL RUN TIME: 21 days 8 hours 49 minutes 22 seconds 395 msec
'cas_2_2.gbw' -> '/csnfs/users/llang/calculations/ICE_SOC_SSC/diatomics/O2/def2-TZVP/CAS_12_60_moreroots/cas_2_2.gbw'
'mol.CAS_DTensor_HEFF_rotated.xyz' -> '/csnfs/users/llang/calculations/ICE_SOC_SSC/diatomics/O2/def2-TZVP/CAS_12_60_moreroots/mol.CAS_DTensor_HEFF_rotated.xyz'
'mol.bibtex' -> '/csnfs/users/llang/calculations/ICE_SOC_SSC/diatomics/O2/def2-TZVP/CAS_12_60_moreroots/mol.bibtex'
'mol.densities' -> '/csnfs/users/llang/calculations/ICE_SOC_SSC/diatomics/O2/def2-TZVP/CAS_12_60_moreroots/mol.densities'
'mol.err' -> '/csnfs/users/llang/calculations/ICE_SOC_SSC/diatomics/O2/def2-TZVP/CAS_12_60_moreroots/mol.err'
'mol.gbw' -> '/csnfs/users/llang/calculations/ICE_SOC_SSC/diatomics/O2/def2-TZVP/CAS_12_60_moreroots/mol.gbw'
'mol.job' -> '/csnfs/users/llang/calculations/ICE_SOC_SSC/diatomics/O2/def2-TZVP/CAS_12_60_moreroots/mol.job'
'mol.mpi24.out_killed' -> '/csnfs/users/llang/calculations/ICE_SOC_SSC/diatomics/O2/def2-TZVP/CAS_12_60_moreroots/mol.mpi24.out_killed'
'mol.mpi24.out_killed2' -> '/csnfs/users/llang/calculations/ICE_SOC_SSC/diatomics/O2/def2-TZVP/CAS_12_60_moreroots/mol.mpi24.out_killed2'
'mol_property.txt' -> '/csnfs/users/llang/calculations/ICE_SOC_SSC/diatomics/O2/def2-TZVP/CAS_12_60_moreroots/mol_property.txt'
cp: cannot stat 'mol.asa.inp': No such file or directory
cp: missing destination file operand after '/csnfs/users/llang/calculations/ICE_SOC_SSC/diatomics/O2/def2-TZVP/CAS_12_60_moreroots/'
Try 'cp --help' for more information.
