! Job execution by suborca V 9.37 !
Job started from head1.mpi-muelheim.mpg.de, running /hsnfs/software/orca/orca_current_directory/orca_current_20230615/orca on xe30th28.mpi-muelheim.mpg.de in /usr/scratch/llang/mol__279403 (/bin/tcsh)
Job execution start: Thu Jun 15 10:45:32 CEST 2023
Shared library path: /hsnfs/software/openmpi-4.1.0/lib:/hsnfs/software/orca/orca_current_directory/orca_current_20230615:/hsnfs/software/themis/llvm-14.0.1/lib:/hsnfs/software/orca/orca_stable:/usr/users/openmpi-2.0.4/lib:/opt/intel/lib/intel64:/opt/intel/mkl/lib/intel64
SLURM Job ID is: 279403
SLURM_JOB_NODELIST: xe30th28
Maxcore enforced by SLURM: 2048 MB
Expanded nodelist (1 nodes):
xe30th28

                                 *****************
                                 * O   R   C   A *
                                 *****************

                                            #,                                       
                                            ###                                      
                                            ####                                     
                                            #####                                    
                                            ######                                   
                                           ########,                                 
                                     ,,################,,,,,                         
                               ,,#################################,,                 
                          ,,##########################################,,             
                       ,#########################################, ''#####,          
                    ,#############################################,,   '####,        
                  ,##################################################,,,,####,       
                ,###########''''           ''''###############################       
              ,#####''   ,,,,##########,,,,          '''####'''          '####       
            ,##' ,,,,###########################,,,                        '##       
           ' ,,###''''                  '''############,,,                           
         ,,##''                                '''############,,,,        ,,,,,,###''
      ,#''                                            '''#######################'''  
     '                                                          ''''####''''         
             ,#######,   #######,   ,#######,      ##                                
            ,#'     '#,  ##    ##  ,#'     '#,    #''#        ,####,   ,####,        
            ##       ##  ##   ,#'  ##            #'  '#       #'       #'  '#        
            ##       ##  #######   ##           ,######,      #####,   #    #        
            '#,     ,#'  ##    ##  '#,     ,#' ,#      #,     #,   #   #,  ,#        
             '#######'   ##     ##  '#######'  #'      '#     '####' # '####'.alpha  



                  #######################################################
                  #                        -***-                        #
                  #          Department of theory and spectroscopy      #
                  #    Directorship and core code : Frank Neese         #
                  #        Max Planck Institute fuer Kohlenforschung    #
                  #                Kaiser Wilhelm Platz 1               #
                  #                 D-45470 Muelheim/Ruhr               #
                  #                      Germany                        #
                  #                                                     #
                  #                  All rights reserved                #
                  #                        -***-                        #
                  #######################################################


                         Program Version 5.0  -  CURRENT   -
                                (GIT: $aeca473df$)
                ($2023-06-14 19:36:16 +0200 $)

                  !                     WARNING:                         !
                  !         This is a DEVELOPMENT version                !

                         (BUILD: $Do 15. Jun 00:07:55 CEST 2023$)


 With contributions from (in alphabetic order):
   Daniel Aravena         : Magnetic Suceptibility
   Michael Atanasov       : Ab Initio Ligand Field Theory (pilot matlab implementation)
   Alexander A. Auer      : GIAO ZORA, VPT2 properties, NMR spectrum
   Ute Becker             : Parallelization
   Giovanni Bistoni       : ED, misc. LED, open-shell LED, HFLD
   Martin Brehm           : Molecular dynamics
   Dmytro Bykov           : SCF Hessian
   Vijay G. Chilkuri      : MRCI spin determinant printing, contributions to CSF-ICE
   Dipayan Datta          : RHF DLPNO-CCSD density
   Achintya Kumar Dutta   : EOM-CC, STEOM-CC
   Dmitry Ganyushin       : Spin-Orbit,Spin-Spin,Magnetic field MRCI
   Miquel Garcia          : C-PCM and meta-GGA Hessian, CCSD/C-PCM, Gaussian charge scheme
   Yang Guo               : DLPNO-NEVPT2, F12-NEVPT2, CIM, IAO-localization
   Andreas Hansen         : Spin unrestricted coupled pair/coupled cluster methods
   Benjamin Helmich-Paris : MC-RPA, TRAH-(SCF,CASSCF), AVAS, COSX integrals, SCF dyn. polar.
   Lee Huntington         : MR-EOM, pCC
   Robert Izsak           : Overlap fitted RIJCOSX, COSX-SCS-MP3, EOM
   Marcus Kettner         : VPT2
   Christian Kollmar      : KDIIS, OOCD, Brueckner-CCSD(T), CCSD density, CASPT2, CASPT2-K, improved NEVPT2
   Simone Kossmann        : Meta GGA functionals, TD-DFT gradient, OOMP2, MP2 Hessian
   Martin Krupicka        : Initial AUTO-CI
   Lucas Lang             : DCDCAS
   Marvin Lechner         : AUTO-CI (C++ implementation), FIC-MRCC
   Dagmar Lenk            : GEPOL surface, SMD
   Dimitrios Liakos       : Extrapolation schemes; Compound Job, initial MDCI parallelization
   Dimitrios Manganas     : Further ROCIS development; embedding schemes
   Dimitrios Pantazis     : SARC Basis sets
   Anastasios Papadopoulos: AUTO-CI, single reference methods and gradients
   Taras Petrenko         : DFT Hessian,TD-DFT gradient, ASA, ECA, R-Raman, ABS, FL, XAS/XES, NRVS
   Peter Pinski           : DLPNO-MP2, DLPNO-MP2 Gradient
   Christoph Reimann      : Effective Core Potentials
   Marius Retegan         : Local ZFS, SOC
   Christoph Riplinger    : Optimizer, TS searches, QM/MM, DLPNO-CCSD(T), (RO)-DLPNO pert. Triples
   Tobias Risthaus        : Range-separated hybrids, TD-DFT gradient, RPA, STAB
   Michael Roemelt        : Original ROCIS implementation
   Masaaki Saitow         : Open-shell DLPNO-CCSD energy and density
   Barbara Sandhoefer     : DKH picture change effects
   Avijit Sen             : IP-ROCIS
   Kantharuban Sivalingam : CASSCF convergence, NEVPT2, FIC-MRCI
   Bernardo de Souza      : ESD, SOC TD-DFT
   Georgi Stoychev        : AutoAux, RI-MP2 NMR, DLPNO-MP2 response
   Willem Van den Heuvel  : Paramagnetic NMR
   Boris Wezisla          : Elementary symmetry handling
   Frank Wennmohs         : Technical directorship


 We gratefully acknowledge several colleagues who have allowed us to
 interface, adapt or use parts of their codes:
   Stefan Grimme, W. Hujo, H. Kruse, P. Pracht,  : VdW corrections, initial TS optimization,
                  C. Bannwarth, S. Ehlert          DFT functionals, gCP, sTDA/sTD-DF
   Ed Valeev, F. Pavosevic, A. Kumar             : LibInt (2-el integral package), F12 methods
   Garnet Chan, S. Sharma, J. Yang, R. Olivares  : DMRG
   Ulf Ekstrom                                   : XCFun DFT Library
   Mihaly Kallay                                 : mrcc  (arbitrary order and MRCC methods)
   Jiri Pittner, Ondrej Demel                    : Mk-CCSD
   Frank Weinhold                                : gennbo (NPA and NBO analysis)
   Christopher J. Cramer and Donald G. Truhlar   : smd solvation model
   Lars Goerigk                                  : TD-DFT with DH, B97 family of functionals
   V. Asgeirsson, H. Jonsson                     : NEB implementation
   FAccTs GmbH                                   : IRC, NEB, NEB-TS, DLPNO-Multilevel, CI-OPT
                                                   MM, QMMM, 2- and 3-layer-ONIOM, Crystal-QMMM,
                                                   LR-CPCM, SF, NACMEs, symmetry and pop. for TD-DFT,
                                                   nearIR, NL-DFT gradient (VV10), updates on ESD,
                                                   ML-optimized integration grids
   S Lehtola, MJT Oliveira, MAL Marques          : LibXC Library
   Liviu Ungur et al                             : ANISO software


 Your calculation uses the libint2 library for the computation of 2-el integrals
 For citations please refer to: http://libint.valeyev.net

 Your ORCA version has been built with support for libXC version: 5.2.2
 For citations please refer to: https://tddft.org/programs/libxc/

 This ORCA versions uses:
   CBLAS   interface :  Fast vector & matrix operations
   LAPACKE interface :  Fast linear algebra routines
   SCALAPACK package :  Parallel linear algebra routines
   Shared memory     :  Shared parallel matrices


================================================================================

----- Orbital basis set information -----
Your calculation utilizes the basis: SARC-DKH-TZVP 
   Rb-Xe:  J. D. Rolfes, F. Neese and D. A. Pantazis, J. Comput. Chem. 41, 1842 (2020).
   La-Lu:  D. A. Pantazis and F. Neese, J. Chem. Theory Comput. 5, 2229 (2009).
   Hf-Hg:  D. A. Pantazis, X. Y. Chen, C. R. Landis and F. Neese, J. Chem. Theory Comput. 4, 908 (2008).
   Tl-Rn:  D. A. Pantazis and F. Neese, Theor. Chem. Acc. 131, 1292 (2012).
   Ac-Lr:  D. A. Pantazis and F. Neese, J. Chem. Theory Comput. 7, 677 (2011).

================================================================================
                                        WARNINGS
                       Please study these warnings very carefully!
================================================================================

WARNING: Old DensityContainer found on disk!
         Will remove this file - 
         If you want to keep old densities, please start your calculation with a different basename. 


INFO   : the flag for use of the SHARK integral package has been found!

================================================================================
                                       INPUT FILE
================================================================================
NAME = mol.inp
|  1> ! DKH2 SARC-DKH-TZVP moread
|  2> 
|  3> %moinp "pmodel.gbw"
|  4> 
|  5> %pal
|  6>   nprocs 12
|  7> end
|  8> 
|  9> %scf
| 10>   rotate
| 11>     {18, 23, 90}
| 12>   end
| 13> end
| 14> 
| 15> %casscf
| 16>   nel 3
| 17>   norb 5
| 18>   mult 4,2
| 19>   nroots 10,40
| 20> end
| 21> 
| 22> * xyz 3 2
| 23> Mo 0.000000 0.000000 0.000000
| 24> *
| 25> 
| 26>                          ****END OF INPUT****
================================================================================

                       ****************************
                       * Single Point Calculation *
                       ****************************

---------------------------------
CARTESIAN COORDINATES (ANGSTROEM)
---------------------------------
  Mo     0.000000    0.000000    0.000000

----------------------------
CARTESIAN COORDINATES (A.U.)
----------------------------
  NO LB      ZA    FRAG     MASS         X           Y           Z
   0 Mo   42.0000    0    95.940    0.000000    0.000000    0.000000

--------------------------------
INTERNAL COORDINATES (ANGSTROEM)
--------------------------------
 Mo     0   0   0     0.000000000000     0.00000000     0.00000000

---------------------------
INTERNAL COORDINATES (A.U.)
---------------------------
 Mo     0   0   0     0.000000000000     0.00000000     0.00000000

---------------------
BASIS SET INFORMATION
---------------------
There are 1 groups of distinct atoms

 Group   1 Type Mo  : 22s15p9d1f contracted to 15s10p5d1f pattern {811111111111111/6111111111/51111/1}



           ************************************************************
           *        Program running with 12 parallel MPI-processes    *
           *              working on a common directory               *
           ************************************************************
------------------------------------------------------------------------------
                           ORCA GTO INTEGRAL CALCULATION
------------------------------------------------------------------------------
------------------------------------------------------------------------------
                   ___                                                        
                  /   \      - P O W E R E D   B Y -                         
                 /     \                                                     
                 |  |  |   _    _      __       _____    __    __             
                 |  |  |  | |  | |    /  \     |  _  \  |  |  /  |          
                  \  \/   | |  | |   /    \    | | | |  |  | /  /          
                 / \  \   | |__| |  /  /\  \   | |_| |  |  |/  /          
                |  |  |   |  __  | /  /__\  \  |    /   |      \           
                |  |  |   | |  | | |   __   |  |    \   |  |\   \          
                \     /   | |  | | |  |  |  |  | |\  \  |  | \   \       
                 \___/    |_|  |_| |__|  |__|  |_| \__\ |__|  \__/        
                                                                              
                      - O R C A' S   B I G   F R I E N D -                    
                                      &                                       
                       - I N T E G R A L  F E E D E R -                       
                                                                              
 v1 FN, 2020, v2 2021                                                         
------------------------------------------------------------------------------


----------------------
SHARK INTEGRAL PACKAGE
----------------------

Number of atoms                             ...      1
Number of basis functions                   ...     77
Number of shells                            ...     31
Maximum angular momentum                    ...      3
Integral batch strategy                     ... SHARK/LIBINT Hybrid
RI-J (if used) integral strategy            ... SPLIT-RIJ (Revised 2003 algorithm where possible)
Printlevel                                  ...      1
Contraction scheme used                     ... SEGMENTED contraction
Prescreening option                         ... SCHWARTZ
   Thresh                                   ... 1.000e-10
   Tcut                                     ... 1.000e-11
   Tpresel                                  ... 1.000e-11 
Coulomb Range Separation                    ... NOT USED
Exchange Range Separation                   ... NOT USED
Finite Nucleus Model                        ... NOT USED
Auxiliary Coulomb fitting basis             ... NOT available
Auxiliary J/K fitting basis                 ... NOT available
Auxiliary Correlation fitting basis         ... NOT available
Auxiliary 'external' fitting basis          ... NOT available

Calculating pre-screening integrals         ... done (  0.0 sec) Dimension = 31
Organizing shell pair data                  ... done (  0.0 sec)
Shell pair information
Total number of shell pairs                 ...       496
Shell pairs after pre-screening             ...       496
Total number of primitive shell pairs       ...      1181
Primitive shell pairs kept                  ...      1181
          la=0 lb=0:    120 shell pairs
          la=1 lb=0:    150 shell pairs
          la=1 lb=1:     55 shell pairs
          la=2 lb=0:     75 shell pairs
          la=2 lb=1:     50 shell pairs
          la=2 lb=2:     15 shell pairs
          la=3 lb=0:     15 shell pairs
          la=3 lb=1:     10 shell pairs
          la=3 lb=2:      5 shell pairs
          la=3 lb=3:      1 shell pairs

Calculating one electron integrals          ... done (  0.0 sec)
Calculating Nuclear repulsion               ... done (  0.0 sec) ENN=      0.000000000000 Eh

-------------------
DFT GRID GENERATION
-------------------

General Integration Accuracy     IntAcc      ... 4.388
Radial Grid Type                 RadialGrid  ... OptM3 with GC (2021)
Angular Grid (max. ang.)         AngularGrid ... 4 (Lebedev-302)
Angular grid pruning method      GridPruning ... 4 (adaptive)
Weight generation scheme         WeightScheme... mBecke (2022)
Basis function cutoff            BFCut       ... 1.0000e-10
Integration weight cutoff        WCut        ... 1.0000e-14
Partially contracted basis set               ... off
Rotationally invariant grid construction     ... off
Angular grids for H and He will be reduced by one unit
Core-polarized basis detected: some atoms will have their core
                               angular grid increased.
Steep s-basis detected: some atoms will have their radial
                        grid points doubled.

Total number of grid points                  ...    27544
Total number of batches                      ...      431
Average number of points per batch           ...       63
Average number of grid points per atom       ...    27544
Initializing poperty integral containers    ... done (  0.0 sec)

SHARK setup successfully completed in   1.4 seconds

Maximum memory used throughout the entire GTOINT-calculation: 16.4 MB


           ************************************************************
           *        Program running with 12 parallel MPI-processes    *
           *              working on a common directory               *
           ************************************************************
------------------------------------------------------------------------------
                          ORCA RELATIVISTIC HAMILTONIAN
------------------------------------------------------------------------------

Relativistic Method            ... DKH
Order of DKH treatment         ...   2
Treatment of potential         ... V(e,N)
Eps parameter for DKH          ...   0.00000000010000
Nucleus model                  ... Point Nucleus
Speed of light used            ... 137.03598950000000


            ************************************************
            *        DOUGLAS-KROLL-HESS HAMILTONIAN        *
            *   Programmed by FN according to literature   *
            *        procedures. Special thanks to         *
            *       B.A. Hess, M. Reiher and A. Wolf       *
            *     University Erlangen-Nuernberg/Bonn       *
            ************************************************

Uncontracting the basis (first version)        ... done
Number of contracted basis functions           ...   77
Number of uncontracted basis functions         ...  119
Initializing the DKH file                      ... done
Calculating the relativistic integrals         ... done
Storing DKH matrices                           ... done
Code used for DKH trafo                        ... ORCA
Computing the DKH transformation               ... done
Storing the transformation variables           ... done
Transforming V and pVp to p**2 space           ... done
First transformation of V and pVp              ... done
Second transformation of Veff                  ... done
Adding kinetic energy                          ... done
Back transformation of Veff to r-space         ... done
Recovering DKH matrices                        ... done
Recontracting the H-matrix (first version)     ... done
Computing the DKH correction to the H-matrix   ... done
Reading the original H-matrix                  ... done
Adding DKH correction to the H-matrix          ... done
Storing the new modified H-matrix              ... done

Maximum memory used throughout the entire REL-calculation: 10.9 MB


           ************************************************************
           *        Program running with 12 parallel MPI-processes    *
           *              working on a common directory               *
           ************************************************************

------------------------------------------------------------------------------
                         ORCA PROPERTY INTEGRAL CALCULATIONS
------------------------------------------------------------------------------

GBWName                                   ... mol.gbw
Number of atoms                           ...      1
Number of basis functions                 ...     77
Max core memory                           ...   1024 MB

Dipole integrals                          ... YES
Quadrupole integrals                      ...  NO
Linear Momentum integrals                 ...  NO
Angular Momentum integrals                ...  NO
Higher Moments length integrals           ...  NO
Higher Moments velocity integrals         ...  NO
Kinetic energy integrals                  ...  NO
GIAO Right Hand Sides                     ...  NO
SOC integrals                             ...  NO
EPR diamagnetic integrals (GIAO)          ...  NO
EPR gauge integrals                       ...  NO
Field gradient integrals                  ...  NO (   0 nuclei)
Spin-dipole/Fermi contact integrals       ...  NO (   0 nuclei)
Nucleus-orbit integrals                   ...  NO (   0 nuclei)
Geometric perturbations                   ...  NO (   1 nuclei)
Electric origin: (  0.0000,  0.0000,  0.0000) 
Magnetic origin: (  0.0000,  0.0000,  0.0000) 

Calculating integrals                     ... Electric Dipole (Length)     done (  0.0 sec)

Property integrals calculated in   0.0 sec

Maximum memory used throughout the entire PROPINT-calculation: 6.0 MB


           ************************************************************
           *        Program running with 12 parallel MPI-processes    *
           *              working on a common directory               *
           ************************************************************
-------------------------------------------------------------------------------
                                 ORCA SCF
-------------------------------------------------------------------------------

------------
SCF SETTINGS
------------
Hamiltonian:
 Ab initio Hamiltonian  Method          .... Hartree-Fock(GTOs)

Relativistic Settings:
 Scalar relativistic method             .... Douglas-Kroll-Hess
 Order of DKH procedure    Order        ....    2
 Mode of DKH-treatment                  .... V=V(e,N)
 Speed of light used       Velit        ....       137.035989
 Cutoff-constant           Eps          ....            1e-10 


General Settings:
 Integral files         IntName         .... mol
 Hartree-Fock type      HFTyp           .... CASSCF
 Total Charge           Charge          ....    3
 Multiplicity           Mult            ....    2
 Number of Electrons    NEL             ....   39
 Basis Dimension        Dim             ....   77
 Nuclear Repulsion      ENuc            ....      0.0000000000 Eh


Diagonalization of the overlap matrix:
Smallest eigenvalue                        ... 7.236e-04
Time for diagonalization                   ...    0.002 sec
Threshold for overlap eigenvalues          ... 1.000e-08
Number of eigenvalues below threshold      ... 0
Time for construction of square roots      ...    0.037 sec
Total time needed                          ...    0.040 sec

---------------------
INITIAL GUESS: MOREAD
---------------------
Guess MOs are being read from file: pmodel.gbw
Input Geometry matches current geometry (good)
Input basis set matches current basis set (good)
MOs were renormalized
Gram-Schmidt orthogonalization of all MOs with pivot on actives
-----------------
ORBITAL ROTATIONS
-----------------
  Rotation  18(0)   23(0) cos(t)= 0.000000  sin(t)= 1.000000
  Orbital Energies were swapped
                      ------------------
                      INITIAL GUESS DONE (   0.0 sec)
                      ------------------


 ... the calculation is a CASSCF calculation -I'm leaving here GOOD LUCK!!!



           ************************************************************
           *        Program running with 12 parallel MPI-processes    *
           *              working on a common directory               *
           ************************************************************
-------------------------------------------------------------------------------
                              ORCA-CASSCF
-------------------------------------------------------------------------------

Setting up the integral package     ... done
Building the CAS space              ... done (10 configurations for Mult=4)
Building the CAS space              ... done (30 configurations for Mult=2)

SYSTEM-SPECIFIC SETTINGS:
Number of active electrons          ...    3
Number of active orbitals           ...    5
Total number of electrons           ...   39
Total number of orbitals            ...   77

Determined orbital ranges:
   Internal       0 -   17 (  18 orbitals)
   Active        18 -   22 (   5 orbitals)
   External      23 -   76 (  54 orbitals)
Number of rotation parameters      ...   1332

CI-STEP:
CI strategy                         ... General CI
Number of multiplicity blocks       ...    2
BLOCK  0 WEIGHT=   0.5000
  Multiplicity                      ...    4
  #(Configurations)                 ...   10
  #(CSFs)                           ...   10
  #(Roots)                          ...   10
    ROOT=0 WEIGHT=    0.050000
    ROOT=1 WEIGHT=    0.050000
    ROOT=2 WEIGHT=    0.050000
    ROOT=3 WEIGHT=    0.050000
    ROOT=4 WEIGHT=    0.050000
    ROOT=5 WEIGHT=    0.050000
    ROOT=6 WEIGHT=    0.050000
    ROOT=7 WEIGHT=    0.050000
    ROOT=8 WEIGHT=    0.050000
    ROOT=9 WEIGHT=    0.050000

BLOCK  1 WEIGHT=   0.5000
  Multiplicity                      ...    2
  #(Configurations)                 ...   30
  #(CSFs)                           ...   40
  #(Roots)                          ...   40
    ROOT=0 WEIGHT=    0.012500
    ROOT=1 WEIGHT=    0.012500
    ROOT=2 WEIGHT=    0.012500
    ROOT=3 WEIGHT=    0.012500
    ROOT=4 WEIGHT=    0.012500
    ROOT=5 WEIGHT=    0.012500
    ROOT=6 WEIGHT=    0.012500
    ROOT=7 WEIGHT=    0.012500
    ROOT=8 WEIGHT=    0.012500
    ROOT=9 WEIGHT=    0.012500
    ROOT=10 WEIGHT=    0.012500
    ROOT=11 WEIGHT=    0.012500
    ROOT=12 WEIGHT=    0.012500
    ROOT=13 WEIGHT=    0.012500
    ROOT=14 WEIGHT=    0.012500
    ROOT=15 WEIGHT=    0.012500
    ROOT=16 WEIGHT=    0.012500
    ROOT=17 WEIGHT=    0.012500
    ROOT=18 WEIGHT=    0.012500
    ROOT=19 WEIGHT=    0.012500
    ROOT=20 WEIGHT=    0.012500
    ROOT=21 WEIGHT=    0.012500
    ROOT=22 WEIGHT=    0.012500
    ROOT=23 WEIGHT=    0.012500
    ROOT=24 WEIGHT=    0.012500
    ROOT=25 WEIGHT=    0.012500
    ROOT=26 WEIGHT=    0.012500
    ROOT=27 WEIGHT=    0.012500
    ROOT=28 WEIGHT=    0.012500
    ROOT=29 WEIGHT=    0.012500
    ROOT=30 WEIGHT=    0.012500
    ROOT=31 WEIGHT=    0.012500
    ROOT=32 WEIGHT=    0.012500
    ROOT=33 WEIGHT=    0.012500
    ROOT=34 WEIGHT=    0.012500
    ROOT=35 WEIGHT=    0.012500
    ROOT=36 WEIGHT=    0.012500
    ROOT=37 WEIGHT=    0.012500
    ROOT=38 WEIGHT=    0.012500
    ROOT=39 WEIGHT=    0.012500

  PrintLevel                        ...    1
  N(GuessMat)                       ...       512
  MaxDim(CI)                        ...        10
  MaxIter(CI)                       ...        64
  Energy Tolerance CI               ...  1.00e-08
  Residual Tolerance CI             ...  1.00e-08
  Shift(CI)                         ...  1.00e-04

INTEGRAL-TRANSFORMATION-STEP:
  Algorithm                         ... EXACT

ORBITAL-IMPROVEMENT-STEP:
  Algorithm                         ... SuperCI(PT)
  Default Parametrization           ... CAYLEY
  Act-Act rotations                 ... depends on algorithm used

  Note: SuperCI(PT) will ignore FreezeIE, FreezeAct and FreezeGrad. In general Default settings are encouraged.
        In conjunction with ShiftUp, ShiftDn or GradScaling the performance of SuperCI(PT) is less optimal.  

  MaxRot                            ... 2.00e-01 
  Max. no of vectors (DIIS)         ... 15
  DThresh (cut-off) metric          ... 1.00e-06
  Switch step at gradient           ...  3.00e-02 
  Switch step at iteration          ...        50   
  Switch step to                    ... SuperCI(PT)    

SCF-SETTINGS:
  Incremental                       ... on
  RIJCOSX approximation             ... off
  RI-JK approximation               ... off
  AO integral handling              ... DIRECT
  Integral Neglect Thresh           ...  1.00e-10
  Primitive cutoff TCut             ...  1.00e-11
  Energy convergence tolerance      ...  1.00e-07
  Orbital gradient convergence      ...  1.00e-03
  Max. number of iterations         ...        75  


FINAL ORBITALS:
  Active   Orbitals                 ... natural 
  Internal Orbitals                 ... canonical 
  External Orbitals                 ... canonical 

------------------
CAS-SCF ITERATIONS
------------------


MACRO-ITERATION   1: 
   --- Inactive Energy E0 = -4037.63131324 Eh
CI-ITERATION   0: 
 -4043.502085467   0.000000000003 (    0.00)
 -4043.502085467   0.000000000004
 -4043.502085466   0.000000000004
 -4043.502085466   0.000000000004
 -4043.502085466   0.000000000003
 -4043.502085466   0.000000000006
 -4043.502085466   0.000000000005
 -4043.459061481   0.000000000005
 -4043.459061481   0.000000000003
 -4043.459061481   0.000000000003
   CI-PROBLEM SOLVED
   DENSITIES MADE
CI-ITERATION   0: 
 -4043.457664833   0.000000000005 (    0.00)
 -4043.457664833   0.000000000006
 -4043.457664833   0.000000000005
 -4043.457664833   0.000000000003
 -4043.457664833   0.000000000005
 -4043.457664833   0.000000000003
 -4043.457664833   0.000000000007
 -4043.457664832   0.000000000004
 -4043.457664832   0.000000000003
 -4043.443323504   0.000000000006
 -4043.443323504   0.000000000004
 -4043.443323504   0.000000000005
 -4043.443323504   0.000000000005
 -4043.443323504   0.000000000004
 -4043.443323504   0.000000000004
 -4043.443323504   0.000000000005
 -4043.443323504   0.000000000004
 -4043.443323504   0.000000000005
 -4043.443323504   0.000000000007
 -4043.443323504   0.000000000006
 -4043.443323504   0.000000000006
 -4043.443323504   0.000000000004
 -4043.443323504   0.000000000005
 -4043.437997478   0.000000000005
 -4043.437997478   0.000000000005
 -4043.437997478   0.000000000004
 -4043.437997478   0.000000000004
 -4043.437997478   0.000000000006
 -4043.400299519   0.000000000010
 -4043.400299519   0.000000000007
 -4043.400299519   0.000000000005
 -4043.400299519   0.000000000006
 -4043.400299519   0.000000000004
 -4043.400299519   0.000000000005
 -4043.400299519   0.000000000005
 -4043.341617591   0.000000000006
 -4043.341617591   0.000000000004
 -4043.341617591   0.000000000007
 -4043.341617591   0.000000000006
 -4043.341617591   0.000000000004
   CI-PROBLEM SOLVED
   DENSITIES MADE

                 <<<<<<<<<<<<<<<<<<INITIAL CI STATE CHECK>>>>>>>>>>>>>>>>>>

BLOCK  0 MULT= 4 NROOTS=10 
ROOT   0:  E=   -4043.5020854667 Eh
      0.57165 [     9]: 00111
      0.21449 [     8]: 01011
      0.07133 [     5]: 10011
      0.06863 [     3]: 10110
      0.02795 [     4]: 10101
      0.02429 [     1]: 11010
      0.01293 [     7]: 01101
      0.00673 [     2]: 11001
ROOT   1:  E=   -4043.5020854667 Eh  0.000 eV      0.0 cm**-1
      0.31335 [     6]: 01110
      0.19081 [     3]: 10110
      0.19005 [     8]: 01011
      0.11642 [     5]: 10011
      0.09753 [     7]: 01101
      0.04838 [     4]: 10101
      0.02131 [     9]: 00111
      0.01469 [     1]: 11010
      0.00557 [     0]: 11100
ROOT   2:  E=   -4043.5020854665 Eh  0.000 eV      0.0 cm**-1
      0.47821 [     7]: 01101
      0.14448 [     0]: 11100
      0.14382 [     2]: 11001
      0.11309 [     6]: 01110
      0.04240 [     4]: 10101
      0.02985 [     9]: 00111
      0.02450 [     8]: 01011
      0.02361 [     3]: 10110
ROOT   3:  E=   -4043.5020854664 Eh  0.000 eV      0.0 cm**-1
      0.24314 [     0]: 11100
      0.16362 [     5]: 10011
      0.14578 [     1]: 11010
      0.14545 [     9]: 00111
      0.11983 [     2]: 11001
      0.08872 [     3]: 10110
      0.04775 [     4]: 10101
      0.03533 [     6]: 01110
      0.00762 [     8]: 01011
      0.00277 [     7]: 01101
ROOT   4:  E=   -4043.5020854663 Eh  0.000 eV      0.0 cm**-1
      0.40884 [     5]: 10011
      0.19976 [     8]: 01011
      0.16259 [     2]: 11001
      0.12266 [     4]: 10101
      0.06887 [     3]: 10110
      0.03428 [     0]: 11100
ROOT   5:  E=   -4043.5020854663 Eh  0.000 eV      0.0 cm**-1
      0.33622 [     4]: 10101
      0.16718 [     1]: 11010
      0.16376 [     0]: 11100
      0.09816 [     3]: 10110
      0.09270 [     7]: 01101
      0.06387 [     9]: 00111
      0.03203 [     6]: 01110
      0.03093 [     5]: 10011
      0.01472 [     8]: 01011
ROOT   6:  E=   -4043.5020854662 Eh  0.000 eV      0.0 cm**-1
      0.49999 [     1]: 11010
      0.31372 [     0]: 11100
      0.10622 [     7]: 01101
      0.03974 [     2]: 11001
      0.02222 [     8]: 01011
      0.00839 [     5]: 10011
      0.00614 [     6]: 01110
ROOT   7:  E=   -4043.4590614814 Eh  1.171 eV   9442.7 cm**-1
      0.36386 [     4]: 10101
      0.21326 [     3]: 10110
      0.18609 [     7]: 01101
      0.09680 [     2]: 11001
      0.05535 [     8]: 01011
      0.04632 [     1]: 11010
      0.02256 [     6]: 01110
      0.01561 [     5]: 10011
ROOT   8:  E=   -4043.4590614812 Eh  1.171 eV   9442.7 cm**-1
      0.33209 [     6]: 01110
      0.25912 [     8]: 01011
      0.15658 [     2]: 11001
      0.13201 [     9]: 00111
      0.06865 [     0]: 11100
      0.02209 [     7]: 01101
      0.01805 [     3]: 10110
      0.00892 [     4]: 10101
ROOT   9:  E=   -4043.4590614812 Eh  1.171 eV   9442.7 cm**-1
      0.27160 [     2]: 11001
      0.22860 [     3]: 10110
      0.18338 [     5]: 10011
      0.14368 [     6]: 01110
      0.10058 [     1]: 11010
      0.03463 [     9]: 00111
      0.02518 [     0]: 11100
      0.01216 [     8]: 01011

BLOCK  1 MULT= 2 NROOTS=40 
ROOT   0:  E=   -4043.4576648326 Eh
      0.14716 [     6]: 11010
      0.08507 [    19]: 01101
      0.08307 [    29]: 00012
      0.07994 [    12]: 10011
      0.07439 [    18]: 01110
      0.07178 [     5]: 11100
      0.06308 [    10]: 10101
      0.04905 [    16]: 02001
      0.04509 [    25]: 00120
      0.04096 [     8]: 10200
      0.03137 [    11]: 10020
      0.03064 [     7]: 11001
      0.03012 [    27]: 00102
      0.02949 [    21]: 01011
      0.02710 [     9]: 10110
      0.02399 [     0]: 21000
      0.01926 [    15]: 02010
      0.01616 [    23]: 00210
      0.01517 [    17]: 01200
      0.00866 [    28]: 00021
      0.00666 [     3]: 20001
      0.00595 [    20]: 01020
      0.00461 [    26]: 00111
      0.00386 [    13]: 10002
ROOT   1:  E=   -4043.4576648326 Eh  0.000 eV      0.0 cm**-1
      0.15458 [    21]: 01011
      0.08790 [     5]: 11100
      0.08567 [     9]: 10110
      0.07202 [     6]: 11010
      0.06829 [    14]: 02100
      0.06655 [    26]: 00111
      0.04435 [    17]: 01200
      0.04371 [    11]: 10020
      0.04193 [    22]: 01002
      0.03672 [    12]: 10011
      0.03383 [    13]: 10002
      0.03352 [    28]: 00021
      0.03349 [     3]: 20001
      0.02932 [    23]: 00210
      0.02741 [    19]: 01101
      0.02565 [    18]: 01110
      0.01703 [     1]: 20100
      0.01652 [     7]: 11001
      0.01415 [     2]: 20010
      0.01278 [     4]: 12000
      0.01185 [    10]: 10101
      0.01032 [    27]: 00102
      0.00773 [     8]: 10200
      0.00723 [    29]: 00012
      0.00520 [    16]: 02001
      0.00519 [    24]: 00201
      0.00286 [    20]: 01020
ROOT   2:  E=   -4043.4576648326 Eh  0.000 eV      0.0 cm**-1
      0.12836 [     5]: 11100
      0.12480 [    21]: 01011
      0.09146 [     7]: 11001
      0.07720 [    18]: 01110
      0.06614 [    28]: 00021
      0.05457 [    19]: 01101
      0.05323 [    10]: 10101
      0.05069 [    24]: 00201
      0.04347 [    26]: 00111
      0.04118 [     6]: 11010
      0.03651 [    25]: 00120
      0.03316 [     9]: 10110
      0.02887 [    29]: 00012
      0.02465 [    27]: 00102
      0.02368 [     8]: 10200
      0.02184 [     1]: 20100
      0.01803 [    15]: 02010
      0.01599 [    13]: 10002
      0.01293 [    14]: 02100
      0.01055 [    20]: 01020
      0.00842 [    17]: 01200
      0.00825 [     3]: 20001
      0.00674 [     4]: 12000
      0.00605 [     0]: 21000
      0.00447 [    22]: 01002
      0.00346 [    16]: 02001
      0.00299 [    11]: 10020
ROOT   3:  E=   -4043.4576648326 Eh  0.000 eV      0.0 cm**-1
      0.14048 [    19]: 01101
      0.12479 [     5]: 11100
      0.09608 [    26]: 00111
      0.08129 [    10]: 10101
      0.06773 [    20]: 01020
      0.05670 [     4]: 12000
      0.04850 [    13]: 10002
      0.04764 [    21]: 01011
      0.04697 [    29]: 00012
      0.04088 [    12]: 10011
      0.04067 [     8]: 10200
      0.03395 [    18]: 01110
      0.03377 [    11]: 10020
      0.03100 [    23]: 00210
      0.02069 [    28]: 00021
      0.01683 [    17]: 01200
      0.01341 [     6]: 11010
      0.01048 [    27]: 00102
      0.00885 [    15]: 02010
      0.00806 [     3]: 20001
      0.00772 [    14]: 02100
      0.00770 [    22]: 01002
      0.00501 [     9]: 10110
      0.00420 [     7]: 11001
      0.00286 [     2]: 20010
ROOT   4:  E=   -4043.4576648326 Eh  0.000 eV      0.0 cm**-1
      0.18755 [    26]: 00111
      0.13935 [     0]: 21000
      0.11081 [    11]: 10020
      0.08981 [    21]: 01011
      0.06047 [    10]: 10101
      0.05636 [    17]: 01200
      0.05351 [     4]: 12000
      0.04125 [     5]: 11100
      0.03431 [    12]: 10011
      0.03088 [    28]: 00021
      0.03006 [    27]: 00102
      0.02881 [    19]: 01101
      0.02821 [    24]: 00201
      0.02205 [     9]: 10110
      0.02019 [     6]: 11010
      0.01542 [     7]: 11001
      0.01210 [    13]: 10002
      0.00911 [    29]: 00012
      0.00823 [     1]: 20100
      0.00551 [    14]: 02100
      0.00541 [    22]: 01002
      0.00425 [     2]: 20010
      0.00389 [    20]: 01020
ROOT   5:  E=   -4043.4576648325 Eh  0.000 eV      0.0 cm**-1
      0.16082 [    12]: 10011
      0.08618 [     5]: 11100
      0.07619 [    27]: 00102
      0.07189 [    24]: 00201
      0.07064 [     7]: 11001
      0.07034 [     9]: 10110
      0.05716 [     0]: 21000
      0.04749 [    20]: 01020
      0.03867 [    19]: 01101
      0.03720 [    10]: 10101
      0.03676 [     4]: 12000
      0.03510 [     6]: 11010
      0.02605 [    18]: 01110
      0.02510 [    17]: 01200
      0.02212 [    28]: 00021
      0.02157 [    11]: 10020
      0.01884 [    22]: 01002
      0.01503 [    25]: 00120
      0.01429 [    16]: 02001
      0.01070 [     8]: 10200
      0.00979 [    23]: 00210
      0.00967 [    29]: 00012
      0.00943 [     2]: 20010
      0.00931 [    15]: 02010
      0.00892 [    14]: 02100
      0.00361 [    26]: 00111
      0.00348 [     1]: 20100
      0.00344 [    13]: 10002
ROOT   6:  E=   -4043.4576648325 Eh  0.000 eV      0.0 cm**-1
      0.29369 [     6]: 11010
      0.13512 [    19]: 01101
      0.09711 [    24]: 00201
      0.06671 [     5]: 11100
      0.06353 [     3]: 20001
      0.04914 [    16]: 02001
      0.03745 [    26]: 00111
      0.03352 [     7]: 11001
      0.02628 [    28]: 00021
      0.02454 [    10]: 10101
      0.02266 [    23]: 00210
      0.02219 [     2]: 20010
      0.02095 [    21]: 01011
      0.01832 [     9]: 10110
      0.01597 [    13]: 10002
      0.01242 [    27]: 00102
      0.01150 [     1]: 20100
      0.01001 [    18]: 01110
      0.00990 [    11]: 10020
      0.00836 [    20]: 01020
      0.00742 [    15]: 02010
      0.00715 [    29]: 00012
ROOT   7:  E=   -4043.4576648325 Eh  0.000 eV      0.0 cm**-1
      0.11905 [     9]: 10110
      0.09914 [    10]: 10101
      0.09832 [     2]: 20010
      0.09256 [    29]: 00012
      0.08547 [    26]: 00111
      0.06530 [    14]: 02100
      0.05855 [    16]: 02001
      0.05801 [     5]: 11100
      0.04274 [    15]: 02010
      0.03898 [    23]: 00210
      0.03154 [     4]: 12000
      0.02888 [    12]: 10011
      0.02776 [    18]: 01110
      0.02462 [    19]: 01101
      0.02287 [     1]: 20100
      0.02041 [    21]: 01011
      0.01958 [     0]: 21000
      0.01571 [     3]: 20001
      0.01172 [    27]: 00102
      0.00691 [     8]: 10200
      0.00618 [    17]: 01200
      0.00554 [     7]: 11001
      0.00533 [    28]: 00021
      0.00483 [    20]: 01020
      0.00355 [     6]: 11010
ROOT   8:  E=   -4043.4576648325 Eh  0.000 eV      0.0 cm**-1
      0.18376 [    12]: 10011
      0.12526 [     1]: 20100
      0.09406 [     6]: 11010
      0.07292 [    14]: 02100
      0.06948 [    19]: 01101
      0.06386 [    26]: 00111
      0.05270 [     5]: 11100
      0.04209 [    28]: 00021
      0.03992 [    15]: 02010
      0.03883 [    18]: 01110
      0.03633 [    17]: 01200
      0.03410 [    10]: 10101
      0.02305 [    27]: 00102
      0.02118 [    29]: 00012
      0.01891 [    22]: 01002
      0.01743 [    21]: 01011
      0.01716 [     2]: 20010
      0.01536 [    24]: 00201
      0.00834 [     7]: 11001
      0.00588 [    23]: 00210
      0.00553 [    20]: 01020
      0.00462 [    25]: 00120
      0.00294 [     3]: 20001
ROOT   9:  E=   -4043.4433235044 Eh  0.390 eV   3147.6 cm**-1
      0.15555 [    26]: 00111
      0.14276 [    22]: 01002
      0.11924 [     9]: 10110
      0.08258 [    17]: 01200
      0.08015 [     6]: 11010
      0.05940 [    19]: 01101
      0.05106 [    24]: 00201
      0.04160 [    27]: 00102
      0.03655 [     2]: 20010
      0.03293 [     1]: 20100
      0.03120 [    29]: 00012
      0.02823 [    28]: 00021
      0.02488 [    21]: 01011
      0.01701 [    20]: 01020
      0.01477 [    12]: 10011
      0.01452 [    25]: 00120
      0.01325 [     7]: 11001
      0.01205 [    10]: 10101
      0.00961 [    14]: 02100
      0.00757 [     5]: 11100
      0.00629 [    23]: 00210
      0.00419 [    15]: 02010
      0.00404 [    13]: 10002
      0.00383 [    18]: 01110
      0.00328 [     3]: 20001
ROOT  10:  E=   -4043.4433235043 Eh  0.390 eV   3147.6 cm**-1
      0.13481 [    21]: 01011
      0.11820 [    27]: 00102
      0.09771 [    24]: 00201
      0.08141 [    18]: 01110
      0.06501 [    26]: 00111
      0.06418 [    19]: 01101
      0.06087 [     5]: 11100
      0.05607 [     9]: 10110
      0.04750 [    12]: 10011
      0.04353 [    14]: 02100
      0.03295 [    28]: 00021
      0.03206 [    17]: 01200
      0.02873 [    10]: 10101
      0.01980 [     7]: 11001
      0.01931 [    23]: 00210
      0.01644 [    15]: 02010
      0.01567 [    29]: 00012
      0.01309 [     2]: 20010
      0.01067 [    20]: 01020
      0.01035 [     1]: 20100
      0.00763 [    16]: 02001
      0.00735 [     0]: 21000
      0.00707 [     4]: 12000
      0.00330 [     8]: 10200
      0.00265 [     6]: 11010
ROOT  11:  E=   -4043.4433235043 Eh  0.390 eV   3147.6 cm**-1
      0.24192 [    19]: 01101
      0.12654 [    18]: 01110
      0.10976 [    10]: 10101
      0.09673 [    26]: 00111
      0.07614 [    12]: 10011
      0.05931 [     9]: 10110
      0.04518 [    15]: 02010
      0.04153 [    20]: 01020
      0.04152 [    21]: 01011
      0.02783 [     8]: 10200
      0.02390 [     7]: 11001
      0.01880 [     6]: 11010
      0.01646 [     5]: 11100
      0.01555 [    29]: 00012
      0.01103 [     2]: 20010
      0.00950 [     0]: 21000
      0.00737 [     4]: 12000
      0.00720 [    17]: 01200
      0.00657 [    16]: 02001
      0.00601 [    11]: 10020
      0.00454 [    24]: 00201
ROOT  12:  E=   -4043.4433235043 Eh  0.390 eV   3147.6 cm**-1
      0.13591 [    26]: 00111
      0.10176 [    21]: 01011
      0.10008 [     8]: 10200
      0.09329 [    18]: 01110
      0.06114 [     6]: 11010
      0.05824 [     7]: 11001
      0.05637 [    28]: 00021
      0.04875 [     2]: 20010
      0.04405 [    13]: 10002
      0.03780 [    23]: 00210
      0.03480 [    10]: 10101
      0.03314 [     5]: 11100
      0.02667 [    29]: 00012
      0.02484 [     3]: 20001
      0.02421 [    24]: 00201
      0.02369 [     9]: 10110
      0.02129 [    12]: 10011
      0.01875 [    15]: 02010
      0.01466 [    25]: 00120
      0.01098 [    19]: 01101
      0.00771 [    17]: 01200
      0.00574 [    16]: 02001
      0.00395 [     0]: 21000
      0.00392 [     1]: 20100
      0.00312 [    11]: 10020
      0.00256 [     4]: 12000
ROOT  13:  E=   -4043.4433235042 Eh  0.390 eV   3147.6 cm**-1
      0.15168 [    12]: 10011
      0.09163 [    20]: 01020
      0.07797 [     8]: 10200
      0.07421 [    25]: 00120
      0.06785 [    26]: 00111
      0.05955 [     5]: 11100
      0.05595 [    16]: 02001
      0.05434 [    28]: 00021
      0.04142 [     0]: 21000
      0.04125 [    29]: 00012
      0.03374 [    19]: 01101
      0.03290 [    14]: 02100
      0.03233 [    10]: 10101
      0.02816 [    18]: 01110
      0.02482 [     4]: 12000
      0.02352 [     7]: 11001
      0.02047 [     9]: 10110
      0.01952 [    15]: 02010
      0.01659 [    21]: 01011
      0.01393 [     6]: 11010
      0.01103 [    17]: 01200
      0.00795 [    23]: 00210
      0.00736 [    27]: 00102
      0.00704 [    11]: 10020
ROOT  14:  E=   -4043.4433235041 Eh  0.390 eV   3147.6 cm**-1
      0.13449 [     9]: 10110
      0.13372 [     7]: 11001
      0.12197 [    10]: 10101
      0.07897 [     5]: 11100
      0.05930 [     0]: 21000
      0.05786 [    22]: 01002
      0.05210 [    26]: 00111
      0.04560 [    12]: 10011
      0.04385 [    17]: 01200
      0.04261 [    20]: 01020
      0.03879 [    27]: 00102
      0.03648 [    14]: 02100
      0.03135 [    19]: 01101
      0.02154 [     6]: 11010
      0.01731 [    24]: 00201
      0.01536 [    25]: 00120
      0.01392 [     1]: 20100
      0.01364 [    13]: 10002
      0.01184 [    16]: 02001
      0.00871 [    21]: 01011
      0.00694 [     2]: 20010
      0.00459 [    15]: 02010
      0.00457 [    11]: 10020
ROOT  15:  E=   -4043.4433235041 Eh  0.390 eV   3147.6 cm**-1
      0.17348 [    18]: 01110
      0.09795 [     6]: 11010
      0.08538 [     3]: 20001
      0.07423 [     7]: 11001
      0.06860 [     8]: 10200
      0.06594 [    27]: 00102
      0.05610 [    19]: 01101
      0.05467 [    22]: 01002
      0.05319 [     1]: 20100
      0.04202 [    13]: 10002
      0.03683 [    10]: 10101
      0.03135 [    21]: 01011
      0.02637 [    16]: 02001
      0.02376 [    12]: 10011
      0.01902 [    11]: 10020
      0.01744 [    17]: 01200
      0.01516 [    20]: 01020
      0.01460 [     5]: 11100
      0.00729 [    26]: 00111
      0.00700 [    24]: 00201
      0.00656 [     4]: 12000
      0.00572 [     9]: 10110
      0.00516 [    14]: 02100
      0.00428 [    15]: 02010
ROOT  16:  E=   -4043.4433235041 Eh  0.390 eV   3147.6 cm**-1
      0.13432 [     7]: 11001
      0.09838 [     2]: 20010
      0.09773 [     6]: 11010
      0.07296 [    28]: 00021
      0.05282 [    29]: 00012
      0.05185 [    21]: 01011
      0.04952 [     4]: 12000
      0.04634 [    24]: 00201
      0.04464 [    10]: 10101
      0.04321 [    12]: 10011
      0.03772 [    23]: 00210
      0.03676 [    26]: 00111
      0.03162 [    16]: 02001
      0.02933 [    17]: 01200
      0.01897 [     9]: 10110
      0.01826 [    27]: 00102
      0.01678 [     0]: 21000
      0.01649 [     5]: 11100
      0.01522 [    13]: 10002
      0.01513 [     3]: 20001
      0.01492 [     1]: 20100
      0.01218 [    15]: 02010
      0.01124 [    25]: 00120
      0.00865 [    14]: 02100
      0.00834 [    11]: 10020
      0.00787 [    19]: 01101
      0.00634 [    18]: 01110
ROOT  17:  E=   -4043.4433235041 Eh  0.390 eV   3147.6 cm**-1
      0.19193 [    12]: 10011
      0.12723 [     5]: 11100
      0.08276 [     6]: 11010
      0.05788 [    10]: 10101
      0.05560 [     3]: 20001
      0.05393 [    26]: 00111
      0.05014 [    11]: 10020
      0.04544 [    28]: 00021
      0.03269 [    20]: 01020
      0.03251 [     8]: 10200
      0.03032 [     1]: 20100
      0.02875 [    13]: 10002
      0.02806 [     7]: 11001
      0.02594 [    15]: 02010
      0.02247 [     0]: 21000
      0.02226 [    25]: 00120
      0.01586 [     4]: 12000
      0.01416 [    18]: 01110
      0.01411 [    29]: 00012
      0.01331 [    24]: 00201
      0.01260 [     9]: 10110
      0.01220 [    21]: 01011
      0.01146 [    27]: 00102
      0.00860 [    16]: 02001
      0.00674 [    14]: 02100
ROOT  18:  E=   -4043.4433235041 Eh  0.390 eV   3147.6 cm**-1
      0.11070 [     5]: 11100
      0.10631 [    26]: 00111
      0.10165 [     7]: 11001
      0.09375 [     4]: 12000
      0.08176 [    25]: 00120
      0.05471 [    10]: 10101
      0.05415 [    21]: 01011
      0.04288 [     6]: 11010
      0.04284 [    29]: 00012
      0.04284 [    12]: 10011
      0.03720 [    14]: 02100
      0.03715 [    11]: 10020
      0.03435 [    18]: 01110
      0.02765 [    19]: 01101
      0.02586 [     9]: 10110
      0.02441 [    13]: 10002
      0.02359 [     1]: 20100
      0.01201 [     3]: 20001
      0.00903 [    15]: 02010
      0.00852 [    24]: 00201
      0.00720 [    22]: 01002
      0.00706 [     2]: 20010
      0.00545 [     0]: 21000
      0.00366 [    27]: 00102
ROOT  19:  E=   -4043.4433235041 Eh  0.390 eV   3147.6 cm**-1
      0.12254 [    12]: 10011
      0.11492 [     9]: 10110
      0.09335 [    21]: 01011
      0.08853 [    18]: 01110
      0.08788 [     0]: 21000
      0.07363 [    19]: 01101
      0.07301 [    28]: 00021
      0.06492 [    11]: 10020
      0.04218 [     7]: 11001
      0.03847 [    23]: 00210
      0.03476 [     1]: 20100
      0.02849 [    22]: 01002
      0.02549 [    17]: 01200
      0.01986 [    25]: 00120
      0.01892 [     8]: 10200
      0.01776 [    13]: 10002
      0.01521 [    24]: 00201
      0.00920 [    15]: 02010
      0.00739 [    29]: 00012
      0.00724 [     3]: 20001
      0.00411 [    27]: 00102
      0.00381 [    16]: 02001
      0.00303 [    10]: 10101
ROOT  20:  E=   -4043.4433235040 Eh  0.390 eV   3147.6 cm**-1
      0.10841 [     9]: 10110
      0.10557 [    21]: 01011
      0.10267 [     7]: 11001
      0.10074 [    17]: 01200
      0.09647 [    26]: 00111
      0.08206 [     6]: 11010
      0.07462 [     5]: 11100
      0.06483 [    18]: 01110
      0.04148 [    12]: 10011
      0.03732 [    10]: 10101
      0.02842 [     2]: 20010
      0.02746 [    22]: 01002
      0.02674 [    13]: 10002
      0.02662 [    15]: 02010
      0.01769 [    19]: 01101
      0.01681 [    20]: 01020
      0.01637 [     8]: 10200
      0.00750 [    23]: 00210
      0.00659 [    29]: 00012
      0.00556 [    28]: 00021
ROOT  21:  E=   -4043.4433235040 Eh  0.390 eV   3147.6 cm**-1
      0.18942 [     4]: 12000
      0.10859 [     5]: 11100
      0.10210 [    19]: 01101
      0.08639 [    18]: 01110
      0.06161 [    11]: 10020
      0.05683 [    21]: 01011
      0.05605 [     7]: 11001
      0.05255 [     0]: 21000
      0.05052 [     6]: 11010
      0.03812 [     9]: 10110
      0.03436 [    10]: 10101
      0.03194 [     8]: 10200
      0.02429 [    26]: 00111
      0.02116 [    20]: 01020
      0.01963 [    14]: 02100
      0.01955 [    27]: 00102
      0.01365 [    29]: 00012
      0.01206 [     2]: 20010
      0.00730 [    12]: 10011
      0.00389 [    24]: 00201
      0.00358 [    22]: 01002
      0.00264 [    16]: 02001
ROOT  22:  E=   -4043.4433235040 Eh  0.390 eV   3147.6 cm**-1
      0.16445 [     2]: 20010
      0.14778 [    10]: 10101
      0.12172 [    15]: 02010
      0.09816 [    14]: 02100
      0.09555 [     5]: 11100
      0.07647 [    19]: 01101
      0.05461 [    12]: 10011
      0.04475 [     6]: 11010
      0.04204 [    27]: 00102
      0.03341 [    21]: 01011
      0.02156 [     1]: 20100
      0.01273 [     7]: 11001
      0.01146 [    29]: 00012
      0.01142 [    26]: 00111
      0.00948 [     9]: 10110
      0.00928 [     4]: 12000
      0.00865 [    16]: 02001
      0.00651 [     3]: 20001
      0.00643 [     8]: 10200
      0.00524 [    20]: 01020
      0.00504 [     0]: 21000
      0.00318 [    11]: 10020
      0.00254 [    23]: 00210
ROOT  23:  E=   -4043.4379974777 Eh  0.535 eV   4316.5 cm**-1
      0.16144 [    14]: 02100
      0.10085 [    27]: 00102
      0.08209 [    28]: 00021
      0.08007 [    26]: 00111
      0.06942 [    12]: 10011
      0.06822 [    16]: 02001
      0.05732 [     6]: 11010
      0.04940 [     0]: 21000
      0.04630 [    18]: 01110
      0.03972 [    20]: 01020
      0.03900 [    24]: 00201
      0.03836 [    10]: 10101
      0.03685 [     9]: 10110
      0.03327 [     3]: 20001
      0.01930 [    15]: 02010
      0.01765 [     4]: 12000
      0.01611 [     7]: 11001
      0.00740 [    23]: 00210
      0.00738 [     8]: 10200
      0.00659 [     5]: 11100
      0.00652 [    17]: 01200
      0.00477 [    13]: 10002
      0.00475 [    21]: 01011
      0.00293 [     2]: 20010
ROOT  24:  E=   -4043.4379974776 Eh  0.535 eV   4316.5 cm**-1
      0.11918 [    18]: 01110
      0.11032 [     7]: 11001
      0.08754 [     6]: 11010
      0.07305 [    29]: 00012
      0.05715 [     2]: 20010
      0.05304 [    15]: 02010
      0.05285 [    19]: 01101
      0.05252 [     9]: 10110
      0.04702 [    10]: 10101
      0.04091 [    13]: 10002
      0.03980 [     8]: 10200
      0.03925 [     5]: 11100
      0.02936 [    11]: 10020
      0.02918 [    21]: 01011
      0.02531 [    22]: 01002
      0.02028 [     3]: 20001
      0.01963 [     1]: 20100
      0.01644 [    26]: 00111
      0.01643 [    14]: 02100
      0.01463 [    27]: 00102
      0.01407 [    17]: 01200
      0.01195 [    28]: 00021
      0.00910 [    24]: 00201
      0.00683 [    16]: 02001
      0.00577 [     4]: 12000
      0.00397 [    12]: 10011
      0.00393 [    25]: 00120
ROOT  25:  E=   -4043.4379974776 Eh  0.535 eV   4316.5 cm**-1
      0.15092 [    11]: 10020
      0.13029 [    19]: 01101
      0.09194 [     5]: 11100
      0.08797 [    29]: 00012
      0.08038 [    23]: 00210
      0.07322 [     0]: 21000
      0.07111 [     4]: 12000
      0.06370 [    20]: 01020
      0.03859 [    18]: 01110
      0.03619 [    12]: 10011
      0.03581 [     7]: 11001
      0.02737 [    10]: 10101
      0.01853 [     9]: 10110
      0.01254 [    16]: 02001
      0.00948 [    17]: 01200
      0.00818 [     2]: 20010
      0.00777 [     8]: 10200
      0.00743 [    21]: 01011
      0.00692 [    27]: 00102
      0.00657 [    26]: 00111
      0.00604 [    22]: 01002
      0.00544 [     1]: 20100
      0.00477 [     6]: 11010
      0.00394 [    15]: 02010
      0.00372 [    25]: 00120
      0.00354 [    28]: 00021
      0.00352 [     3]: 20001
      0.00288 [    13]: 10002
ROOT  26:  E=   -4043.4379974776 Eh  0.535 eV   4316.5 cm**-1
      0.13049 [    24]: 00201
      0.12274 [     6]: 11010
      0.09655 [     9]: 10110
      0.07460 [    29]: 00012
      0.07194 [    28]: 00021
      0.06804 [     5]: 11100
      0.06709 [     1]: 20100
      0.04910 [    16]: 02001
      0.04116 [    10]: 10101
      0.03731 [    27]: 00102
      0.03731 [     2]: 20010
      0.03470 [     3]: 20001
      0.03258 [    12]: 10011
      0.02626 [    23]: 00210
      0.02061 [    26]: 00111
      0.01695 [    21]: 01011
      0.01377 [     7]: 11001
      0.01373 [    11]: 10020
      0.01149 [    15]: 02010
      0.00770 [    13]: 10002
      0.00691 [    17]: 01200
      0.00537 [    18]: 01110
      0.00440 [     8]: 10200
      0.00327 [    14]: 02100
ROOT  27:  E=   -4043.4379974775 Eh  0.535 eV   4316.5 cm**-1
      0.18524 [    21]: 01011
      0.11057 [    17]: 01200
      0.09570 [    10]: 10101
      0.06607 [     0]: 21000
      0.06555 [     1]: 20100
      0.05013 [     9]: 10110
      0.04958 [    25]: 00120
      0.04006 [     4]: 12000
      0.03947 [    26]: 00111
      0.03847 [    19]: 01101
      0.03784 [    13]: 10002
      0.03530 [     7]: 11001
      0.03520 [    12]: 10011
      0.03089 [    24]: 00201
      0.01999 [    22]: 01002
      0.01795 [     8]: 10200
      0.01778 [    28]: 00021
      0.01626 [     5]: 11100
      0.01388 [    18]: 01110
      0.00927 [     6]: 11010
      0.00692 [    15]: 02010
      0.00478 [     3]: 20001
      0.00383 [    27]: 00102
      0.00321 [    29]: 00012
      0.00259 [    11]: 10020
ROOT  28:  E=   -4043.4002995190 Eh  1.561 eV  12590.2 cm**-1
      0.10154 [    12]: 10011
      0.09573 [    10]: 10101
      0.09533 [    19]: 01101
      0.09403 [    21]: 01011
      0.07424 [    20]: 01020
      0.07181 [    18]: 01110
      0.06353 [     5]: 11100
      0.06178 [     9]: 10110
      0.04734 [     4]: 12000
      0.04187 [    17]: 01200
      0.04174 [    27]: 00102
      0.03550 [     7]: 11001
      0.03046 [    13]: 10002
      0.02953 [    26]: 00111
      0.02352 [     6]: 11010
      0.01790 [    11]: 10020
      0.01343 [     0]: 21000
      0.01227 [    24]: 00201
      0.01079 [     1]: 20100
      0.00823 [     8]: 10200
      0.00750 [    28]: 00021
      0.00646 [    23]: 00210
      0.00424 [     2]: 20010
      0.00285 [    14]: 02100
ROOT  29:  E=   -4043.4002995190 Eh  1.561 eV  12590.2 cm**-1
      0.16414 [     7]: 11001
      0.11156 [    10]: 10101
      0.10154 [    18]: 01110
      0.08335 [    19]: 01101
      0.07678 [    15]: 02010
      0.06438 [    26]: 00111
      0.04596 [     6]: 11010
      0.03772 [    11]: 10020
      0.03528 [     9]: 10110
      0.03121 [    25]: 00120
      0.03052 [    13]: 10002
      0.02807 [     3]: 20001
      0.02500 [    20]: 01020
      0.02416 [    14]: 02100
      0.02120 [    12]: 10011
      0.02104 [    22]: 01002
      0.01961 [    23]: 00210
      0.01623 [    21]: 01011
      0.01432 [    28]: 00021
      0.00995 [    27]: 00102
      0.00906 [    24]: 00201
      0.00617 [     1]: 20100
      0.00597 [    29]: 00012
      0.00507 [     5]: 11100
      0.00392 [     8]: 10200
      0.00357 [     2]: 20010
ROOT  30:  E=   -4043.4002995189 Eh  1.561 eV  12590.2 cm**-1
      0.13603 [    18]: 01110
      0.09223 [    13]: 10002
      0.08921 [     7]: 11001
      0.08767 [     6]: 11010
      0.07938 [     8]: 10200
      0.06636 [    21]: 01011
      0.05478 [    12]: 10011
      0.04918 [    17]: 01200
      0.04672 [    23]: 00210
      0.03731 [     2]: 20010
      0.03250 [     1]: 20100
      0.03060 [    19]: 01101
      0.02777 [    26]: 00111
      0.02284 [     9]: 10110
      0.02195 [    15]: 02010
      0.02186 [    25]: 00120
      0.01694 [    28]: 00021
      0.01568 [    22]: 01002
      0.01567 [    29]: 00012
      0.01451 [    27]: 00102
      0.00893 [     5]: 11100
      0.00874 [     3]: 20001
      0.00775 [    14]: 02100
      0.00432 [    10]: 10101
      0.00392 [    24]: 00201
      0.00284 [     0]: 21000
ROOT  31:  E=   -4043.4002995189 Eh  1.561 eV  12590.2 cm**-1
      0.16011 [    25]: 00120
      0.10936 [    18]: 01110
      0.10509 [    21]: 01011
      0.09138 [    22]: 01002
      0.08606 [     3]: 20001
      0.07969 [     1]: 20100
      0.04520 [     0]: 21000
      0.04463 [     9]: 10110
      0.04125 [    16]: 02001
      0.03352 [    13]: 10002
      0.03348 [     7]: 11001
      0.02805 [    26]: 00111
      0.02638 [     5]: 11100
      0.02314 [     4]: 12000
      0.01360 [     6]: 11010
      0.01007 [    19]: 01101
      0.01001 [    17]: 01200
      0.00957 [    15]: 02010
      0.00942 [    23]: 00210
      0.00913 [    29]: 00012
      0.00899 [     2]: 20010
      0.00605 [    14]: 02100
      0.00492 [     8]: 10200
      0.00326 [    10]: 10101
ROOT  32:  E=   -4043.4002995189 Eh  1.561 eV  12590.2 cm**-1
      0.14175 [    10]: 10101
      0.10772 [    21]: 01011
      0.08233 [    26]: 00111
      0.07934 [    20]: 01020
      0.07304 [     8]: 10200
      0.06569 [     5]: 11100
      0.06191 [    22]: 01002
      0.05117 [     9]: 10110
      0.04476 [    19]: 01101
      0.04233 [     7]: 11001
      0.03862 [    15]: 02010
      0.03362 [    11]: 10020
      0.03054 [    12]: 10011
      0.02308 [    23]: 00210
      0.02146 [    18]: 01110
      0.02003 [     4]: 12000
      0.01701 [     1]: 20100
      0.01644 [    27]: 00102
      0.01429 [    17]: 01200
      0.01211 [     6]: 11010
      0.00752 [     0]: 21000
      0.00631 [    16]: 02001
      0.00298 [    13]: 10002
ROOT  33:  E=   -4043.4002995189 Eh  1.561 eV  12590.2 cm**-1
      0.24091 [     7]: 11001
      0.12606 [    18]: 01110
      0.09640 [    23]: 00210
      0.07159 [     9]: 10110
      0.07012 [     2]: 20010
      0.06128 [    26]: 00111
      0.04730 [    10]: 10101
      0.04397 [    19]: 01101
      0.03945 [    24]: 00201
      0.03804 [     6]: 11010
      0.02670 [    13]: 10002
      0.02514 [    12]: 10011
      0.02146 [     3]: 20001
      0.01560 [    16]: 02001
      0.01268 [    21]: 01011
      0.01151 [     8]: 10200
      0.00965 [     5]: 11100
      0.00789 [    27]: 00102
      0.00688 [    22]: 01002
      0.00569 [    29]: 00012
      0.00561 [     4]: 12000
      0.00529 [    28]: 00021
      0.00419 [    14]: 02100
ROOT  34:  E=   -4043.4002995189 Eh  1.561 eV  12590.2 cm**-1
      0.25947 [     9]: 10110
      0.13120 [    16]: 02001
      0.08813 [    12]: 10011
      0.08159 [     3]: 20001
      0.05799 [    10]: 10101
      0.05444 [    14]: 02100
      0.04220 [    15]: 02010
      0.03680 [    22]: 01002
      0.03563 [    25]: 00120
      0.03281 [    18]: 01110
      0.02597 [    23]: 00210
      0.02548 [     7]: 11001
      0.01974 [    28]: 00021
      0.01664 [     0]: 21000
      0.01626 [    21]: 01011
      0.01590 [     5]: 11100
      0.01269 [    13]: 10002
      0.01146 [     4]: 12000
      0.01081 [     2]: 20010
      0.00452 [    11]: 10020
      0.00410 [    20]: 01020
      0.00408 [    24]: 00201
      0.00380 [     8]: 10200
      0.00356 [    29]: 00012
ROOT  35:  E=   -4043.3416175909 Eh  3.158 eV  25469.4 cm**-1
      0.14672 [    13]: 10002
      0.11132 [     8]: 10200
      0.10087 [    23]: 00210
      0.09213 [    22]: 01002
      0.06441 [    17]: 01200
      0.06172 [     4]: 12000
      0.05346 [     3]: 20001
      0.04270 [    24]: 00201
      0.03381 [    20]: 01020
      0.03066 [    27]: 00102
      0.02817 [    19]: 01101
      0.02767 [    11]: 10020
      0.02699 [     5]: 11100
      0.02644 [    25]: 00120
      0.02616 [     1]: 20100
      0.02174 [    28]: 00021
      0.01323 [    15]: 02010
      0.01318 [    14]: 02100
      0.01186 [     0]: 21000
      0.01131 [    16]: 02001
      0.01113 [    12]: 10011
      0.01109 [     2]: 20010
      0.00965 [     7]: 11001
      0.00832 [    18]: 01110
      0.00669 [    26]: 00111
      0.00401 [    10]: 10101
ROOT  36:  E=   -4043.3416175909 Eh  3.158 eV  25469.4 cm**-1
      0.15395 [    16]: 02001
      0.13508 [    25]: 00120
      0.12642 [    14]: 02100
      0.07419 [    27]: 00102
      0.07268 [    24]: 00201
      0.05772 [     3]: 20001
      0.05636 [     1]: 20100
      0.04807 [    28]: 00021
      0.04735 [    23]: 00210
      0.03082 [     7]: 11001
      0.03067 [    13]: 10002
      0.02259 [    18]: 01110
      0.01876 [     9]: 10110
      0.01549 [    29]: 00012
      0.01537 [     6]: 11010
      0.01438 [     2]: 20010
      0.01077 [     4]: 12000
      0.01071 [    26]: 00111
      0.01024 [     5]: 11100
      0.00959 [    10]: 10101
      0.00956 [    19]: 01101
      0.00917 [    21]: 01011
      0.00663 [    17]: 01200
      0.00651 [    12]: 10011
      0.00380 [     8]: 10200
ROOT  37:  E=   -4043.3416175908 Eh  3.158 eV  25469.4 cm**-1
      0.14505 [     1]: 20100
      0.13550 [     3]: 20001
      0.13014 [    25]: 00120
      0.07674 [    13]: 10002
      0.05265 [     0]: 21000
      0.04864 [    22]: 01002
      0.04285 [     8]: 10200
      0.04112 [    11]: 10020
      0.03327 [    24]: 00201
      0.03266 [    27]: 00102
      0.02977 [    14]: 02100
      0.02762 [     4]: 12000
      0.02126 [     9]: 10110
      0.01942 [    28]: 00021
      0.01930 [    16]: 02001
      0.01882 [    29]: 00012
      0.01742 [    18]: 01110
      0.01671 [    12]: 10011
      0.01358 [    23]: 00210
      0.01266 [    26]: 00111
      0.01112 [     6]: 11010
      0.01025 [     2]: 20010
      0.01023 [    10]: 10101
      0.01019 [    17]: 01200
      0.00641 [    19]: 01101
      0.00507 [     7]: 11001
      0.00457 [    15]: 02010
      0.00334 [    21]: 01011
ROOT  38:  E=   -4043.3416175907 Eh  3.158 eV  25469.4 cm**-1
      0.19908 [    20]: 01020
      0.11998 [    22]: 01002
      0.11183 [    11]: 10020
      0.08578 [     0]: 21000
      0.08334 [    17]: 01200
      0.05889 [    13]: 10002
      0.05042 [    21]: 01011
      0.04973 [     8]: 10200
      0.04167 [     4]: 12000
      0.03351 [    10]: 10101
      0.02980 [    25]: 00120
      0.02565 [     3]: 20001
      0.01942 [    16]: 02001
      0.01155 [    26]: 00111
      0.00939 [    19]: 01101
      0.00896 [    15]: 02010
      0.00842 [     9]: 10110
      0.00766 [    12]: 10011
      0.00707 [     7]: 11001
      0.00684 [    18]: 01110
      0.00580 [     6]: 11010
      0.00570 [    28]: 00021
      0.00479 [     1]: 20100
      0.00433 [    23]: 00210
      0.00424 [    29]: 00012
      0.00299 [    14]: 02100
ROOT  39:  E=   -4043.3416175907 Eh  3.158 eV  25469.4 cm**-1
      0.22216 [    15]: 02010
      0.17509 [    23]: 00210
      0.12254 [     2]: 20010
      0.10650 [    16]: 02001
      0.09187 [    29]: 00012
      0.04867 [     3]: 20001
      0.04322 [     6]: 11010
      0.02647 [    22]: 01002
      0.02128 [    28]: 00021
      0.01977 [     5]: 11100
      0.01865 [     9]: 10110
      0.01700 [    20]: 01020
      0.01078 [     8]: 10200
      0.01005 [    10]: 10101
      0.00797 [     1]: 20100
      0.00733 [    13]: 10002
      0.00670 [    19]: 01101
      0.00588 [    12]: 10011
      0.00544 [     0]: 21000
      0.00512 [    18]: 01110
      0.00479 [    25]: 00120
      0.00444 [     7]: 11001
      0.00375 [    24]: 00201
      0.00302 [    11]: 10020
      0.00294 [    14]: 02100
      0.00276 [    27]: 00102

                 <<<<<<<<<<<<<<<<<<INITIAL CI STATE CHECK>>>>>>>>>>>>>>>>>>

   E(CAS)= -4043.457410192 Eh DE=    0.000000e+00
   --- Energy gap subspaces: Ext-Act = 0.371   Act-Int = 2.003
   N(occ)=  0.60000 0.60000 0.60000 0.60000 0.60000
   ||g|| =     8.369348e+00 Max(G)=    4.130320e+00 Rot=73,0
   --- Orbital Update [SuperCI(PT)]
   --- Canonicalize Internal Space
   --- Canonicalize External Space
   --- SX_PT (Skipped TA=0 IT=0): ||X|| =      0.573974409 Max(X)(27,19) =     -0.208193993 
   --- SFit(Active Orbitals)

MACRO-ITERATION   2: 
   --- Inactive Energy E0 = -4037.86284455 Eh
CI-ITERATION   0: 
 -4043.784657295   0.000000000005 (    0.00)
 -4043.784554148   0.000000000009
 -4043.784212596   0.000000000003
 -4043.783830852   0.000000000004
 -4043.783581537   0.000000000008
 -4043.783563949   0.000000000003
 -4043.783481593   0.000000000007
 -4043.729041293   0.000000000003
 -4043.728635782   0.000000000004
 -4043.728400840   0.000000000002
   CI-PROBLEM SOLVED
   DENSITIES MADE
CI-ITERATION   0: 
 -4043.725046594   0.000000000007 (    0.00)
 -4043.725044048   0.000000000006
 -4043.724984831   0.000000000005
 -4043.724976190   0.000000000006
 -4043.724903200   0.000000000005
 -4043.724901368   0.000000000005
 -4043.724873835   0.000000000005
 -4043.724860211   0.000000000004
 -4043.724821736   0.000000000004
 -4043.706832504   0.000000000006
 -4043.706831584   0.000000000006
 -4043.706776788   0.000000000005
 -4043.706749461   0.000000000008
 -4043.706603248   0.000000000004
 -4043.706586693   0.000000000010
 -4043.706414399   0.000000000004
 -4043.706399952   0.000000000004
 -4043.706379737   0.000000000005
 -4043.706339209   0.000000000006
 -4043.706288403   0.000000000004
 -4043.706279938   0.000000000004
 -4043.706232032   0.000000000009
 -4043.706224372   0.000000000005
 -4043.699223335   0.000000000006
 -4043.699163390   0.000000000008
 -4043.699133233   0.000000000004
 -4043.699111589   0.000000000008
 -4043.698874351   0.000000000005
 -4043.651241413   0.000000000006
 -4043.651234995   0.000000000003
 -4043.651226813   0.000000000006
 -4043.651215256   0.000000000005
 -4043.651204254   0.000000000005
 -4043.651176795   0.000000000005
 -4043.651175207   0.000000000005
 -4043.573996366   0.000000000007
 -4043.573922981   0.000000000008
 -4043.573781767   0.000000000006
 -4043.573752717   0.000000000010
 -4043.573163977   0.000000000007
   CI-PROBLEM SOLVED
   DENSITIES MADE
   E(CAS)= -4043.725422354 Eh DE=   -2.680122e-01
   --- Energy gap subspaces: Ext-Act = 0.263   Act-Int = 1.878
   N(occ)=  0.60000 0.60000 0.60000 0.60000 0.60000
   ||g|| =     1.366041e+00 Max(G)=    2.573388e-01 Rot=54,17
   --- Orbital Update [SuperCI(PT)]
   --- Canonicalize Internal Space
   --- Canonicalize External Space
   --- SX_PT (Skipped TA=0 IT=0): ||X|| =      0.069004746 Max(X)(35,21) =      0.021771276 
   --- SFit(Active Orbitals)

MACRO-ITERATION   3: 
   --- Inactive Energy E0 = -4037.78082887 Eh
CI-ITERATION   0: 
 -4043.802772565   0.000000000005 (    0.00)
 -4043.802747539   0.000000000003
 -4043.802629614   0.000000000004
 -4043.802524885   0.000000000003
 -4043.802451669   0.000000000003
 -4043.802447136   0.000000000003
 -4043.802419974   0.000000000009
 -4043.747477693   0.000000000004
 -4043.747363669   0.000000000004
 -4043.747280666   0.000000000006
   CI-PROBLEM SOLVED
   DENSITIES MADE
CI-ITERATION   0: 
 -4043.743515375   0.000000000006 (    0.00)
 -4043.743514664   0.000000000006
 -4043.743502026   0.000000000005
 -4043.743499835   0.000000000006
 -4043.743479627   0.000000000005
 -4043.743479208   0.000000000003
 -4043.743470533   0.000000000005
 -4043.743469414   0.000000000004
 -4043.743459046   0.000000000005
 -4043.725198479   0.000000000004
 -4043.725198389   0.000000000005
 -4043.725167453   0.000000000006
 -4043.725155970   0.000000000005
 -4043.725117303   0.000000000005
 -4043.725106663   0.000000000005
 -4043.725064989   0.000000000007
 -4043.725055298   0.000000000007
 -4043.725053424   0.000000000006
 -4043.725038989   0.000000000007
 -4043.725031329   0.000000000005
 -4043.725027274   0.000000000005
 -4043.725009528   0.000000000006
 -4043.725008280   0.000000000005
 -4043.717703969   0.000000000006
 -4043.717691420   0.000000000004
 -4043.717680329   0.000000000005
 -4043.717677314   0.000000000005
 -4043.717605477   0.000000000006
 -4043.669898854   0.000000000006
 -4043.669898563   0.000000000006
 -4043.669894286   0.000000000005
 -4043.669891304   0.000000000006
 -4043.669890362   0.000000000006
 -4043.669886250   0.000000000004
 -4043.669885209   0.000000000005
 -4043.592465391   0.000000000005
 -4043.592449185   0.000000000006
 -4043.592424169   0.000000000005
 -4043.592419800   0.000000000007
 -4043.592231098   0.000000000008
   CI-PROBLEM SOLVED
   DENSITIES MADE
   E(CAS)= -4043.744033471 Eh DE=   -1.861112e-02
   --- Energy gap subspaces: Ext-Act = 0.299   Act-Int = 1.894
   N(occ)=  0.60000 0.60000 0.60000 0.60000 0.60000
   ||g|| =     6.045456e-01 Max(G)=    1.332498e-01 Rot=56,9
   --- Orbital Update [SuperCI(PT)]
   --- Canonicalize Internal Space
   --- Canonicalize External Space
   --- SX_PT (Skipped TA=0 IT=0): ||X|| =      0.033513397 Max(X)(32,21) =      0.015451677 
   --- SFit(Active Orbitals)

MACRO-ITERATION   4: 
   --- Inactive Energy E0 = -4037.79972609 Eh
CI-ITERATION   0: 
 -4043.805910740   0.000000000004 (    0.00)
 -4043.805907442   0.000000000002
 -4043.805890837   0.000000000003
 -4043.805880451   0.000000000003
 -4043.805870834   0.000000000003
 -4043.805869756   0.000000000003
 -4043.805863880   0.000000000002
 -4043.750151208   0.000000000003
 -4043.750139063   0.000000000006
 -4043.750129942   0.000000000001
   CI-PROBLEM SOLVED
   DENSITIES MADE
CI-ITERATION   0: 
 -4043.746174534   0.000000000006 (    0.00)
 -4043.746174396   0.000000000004
 -4043.746171141   0.000000000005
 -4043.746170242   0.000000000004
 -4043.746162987   0.000000000006
 -4043.746156967   0.000000000005
 -4043.746154985   0.000000000004
 -4043.746154520   0.000000000004
 -4043.746154497   0.000000000005
 -4043.727598146   0.000000000007
 -4043.727594882   0.000000000005
 -4043.727593519   0.000000000008
 -4043.727590261   0.000000000005
 -4043.727589944   0.000000000006
 -4043.727584544   0.000000000007
 -4043.727582151   0.000000000009
 -4043.727581516   0.000000000004
 -4043.727579706   0.000000000004
 -4043.727578992   0.000000000005
 -4043.727570194   0.000000000005
 -4043.727570065   0.000000000007
 -4043.727568546   0.000000000007
 -4043.727568484   0.000000000006
 -4043.720087141   0.000000000003
 -4043.720086149   0.000000000004
 -4043.720082409   0.000000000006
 -4043.720076988   0.000000000005
 -4043.720059102   0.000000000003
 -4043.671844386   0.000000000005
 -4043.671841885   0.000000000006
 -4043.671840253   0.000000000005
 -4043.671834803   0.000000000009
 -4043.671834711   0.000000000005
 -4043.671833153   0.000000000007
 -4043.671832893   0.000000000007
 -4043.593551543   0.000000000005
 -4043.593531972   0.000000000006
 -4043.593514279   0.000000000004
 -4043.593510796   0.000000000006
 -4043.593488154   0.000000000003
   CI-PROBLEM SOLVED
   DENSITIES MADE
   E(CAS)= -4043.746736656 Eh DE=   -2.703184e-03
   --- Energy gap subspaces: Ext-Act = 0.288   Act-Int = 1.890
   N(occ)=  0.60000 0.60000 0.60000 0.60000 0.60000
   ||g|| =     8.571921e-02 Max(G)=   -1.956288e-02 Rot=64,6
   --- Orbital Update [SuperCI(PT)]
   --- Canonicalize Internal Space
   --- Canonicalize External Space
   --- SX_PT (Skipped TA=0 IT=0): ||X|| =      0.002993844 Max(X)(32,21) =     -0.001818932 
   --- SFit(Active Orbitals)

MACRO-ITERATION   5: 
   --- Inactive Energy E0 = -4037.79694639 Eh
CI-ITERATION   0: 
 -4043.806000332   0.000000000004 (    0.00)
 -4043.805999752   0.000000000004
 -4043.805996723   0.000000000003
 -4043.805994938   0.000000000005
 -4043.805993207   0.000000000003
 -4043.805993009   0.000000000006
 -4043.805991907   0.000000000005
 -4043.750191004   0.000000000003
 -4043.750189383   0.000000000004
 -4043.750188126   0.000000000003
   CI-PROBLEM SOLVED
   DENSITIES MADE
CI-ITERATION   0: 
 -4043.746197901   0.000000000005 (    0.00)
 -4043.746197884   0.000000000005
 -4043.746197419   0.000000000004
 -4043.746197297   0.000000000005
 -4043.746196204   0.000000000005
 -4043.746195205   0.000000000004
 -4043.746194918   0.000000000006
 -4043.746194786   0.000000000004
 -4043.746194780   0.000000000003
 -4043.727596751   0.000000000004
 -4043.727596265   0.000000000010
 -4043.727595979   0.000000000005
 -4043.727595623   0.000000000005
 -4043.727595550   0.000000000005
 -4043.727594552   0.000000000006
 -4043.727594310   0.000000000007
 -4043.727594186   0.000000000008
 -4043.727593947   0.000000000008
 -4043.727593769   0.000000000004
 -4043.727592126   0.000000000005
 -4043.727592098   0.000000000010
 -4043.727591844   0.000000000005
 -4043.727591832   0.000000000006
 -4043.720079994   0.000000000005
 -4043.720079839   0.000000000003
 -4043.720079347   0.000000000005
 -4043.720078563   0.000000000005
 -4043.720075526   0.000000000005
 -4043.671789066   0.000000000009
 -4043.671788724   0.000000000004
 -4043.671788439   0.000000000006
 -4043.671787565   0.000000000004
 -4043.671787558   0.000000000004
 -4043.671787377   0.000000000005
 -4043.671787350   0.000000000008
 -4043.593375556   0.000000000006
 -4043.593372301   0.000000000007
 -4043.593369437   0.000000000009
 -4043.593368855   0.000000000011
 -4043.593365344   0.000000000004
   CI-PROBLEM SOLVED
   DENSITIES MADE
   E(CAS)= -4043.746774995 Eh DE=   -3.833929e-05
   --- Energy gap subspaces: Ext-Act = 0.288   Act-Int = 1.891
   N(occ)=  0.60000 0.60000 0.60000 0.60000 0.60000
   ||g|| =     2.474246e-02 Max(G)=    5.349518e-03 Rot=56,9
   --- Orbital Update [SuperCI(PT)]
   --- Canonicalize Internal Space
   --- Canonicalize External Space
   --- SX_PT (Skipped TA=0 IT=0): ||X|| =      0.000832099 Max(X)(44,21) =      0.000318717 
   --- SFit(Active Orbitals)

MACRO-ITERATION   6: 
   --- Inactive Energy E0 = -4037.79733744 Eh
CI-ITERATION   0: 
 -4043.806013070   0.000000000003 (    0.00)
 -4043.806012990   0.000000000004
 -4043.806012571   0.000000000005
 -4043.806012348   0.000000000004
 -4043.806012105   0.000000000003
 -4043.806012074   0.000000000004
 -4043.806011907   0.000000000005
 -4043.750193794   0.000000000003
 -4043.750193677   0.000000000003
 -4043.750193588   0.000000000002
   CI-PROBLEM SOLVED
   DENSITIES MADE
CI-ITERATION   0: 
 -4043.746199286   0.000000000005 (    0.00)
 -4043.746199281   0.000000000005
 -4043.746199198   0.000000000005
 -4043.746199174   0.000000000007
 -4043.746198988   0.000000000004
 -4043.746198879   0.000000000004
 -4043.746198866   0.000000000006
 -4043.746198862   0.000000000007
 -4043.746198824   0.000000000005
 -4043.727593180   0.000000000004
 -4043.727593085   0.000000000006
 -4043.727593074   0.000000000003
 -4043.727592951   0.000000000009
 -4043.727592946   0.000000000008
 -4043.727592868   0.000000000006
 -4043.727592809   0.000000000005
 -4043.727592797   0.000000000006
 -4043.727592752   0.000000000007
 -4043.727592712   0.000000000009
 -4043.727592497   0.000000000004
 -4043.727592493   0.000000000008
 -4043.727592444   0.000000000005
 -4043.727592442   0.000000000008
 -4043.720075518   0.000000000005
 -4043.720075500   0.000000000006
 -4043.720075496   0.000000000006
 -4043.720075475   0.000000000005
 -4043.720075065   0.000000000004
 -4043.671774155   0.000000000012
 -4043.671774109   0.000000000008
 -4043.671774094   0.000000000007
 -4043.671774010   0.000000000004
 -4043.671774004   0.000000000006
 -4043.671773952   0.000000000005
 -4043.671773943   0.000000000011
 -4043.593338918   0.000000000004
 -4043.593338414   0.000000000005
 -4043.593337977   0.000000000004
 -4043.593337888   0.000000000012
 -4043.593337483   0.000000000005
   CI-PROBLEM SOLVED
   DENSITIES MADE
   E(CAS)= -4043.746778111 Eh DE=   -3.116404e-06
   --- Energy gap subspaces: Ext-Act = 0.288   Act-Int = 1.891
   N(occ)=  0.60000 0.60000 0.60000 0.60000 0.60000
   ||g|| =     1.501017e-03 Max(G)=   -2.852719e-04 Rot=64,6
   --- Orbital Update [SuperCI(PT)]
   --- Canonicalize Internal Space
   --- Canonicalize External Space
   --- SX_PT (Skipped TA=0 IT=0): ||X|| =      0.000039157 Max(X)(44,21) =     -0.000015801 
Warning: badly conditioned DIIS matrix, 1 vectors out of 6 destroyed
   --- SFit(Active Orbitals)

MACRO-ITERATION   7: 
   --- Inactive Energy E0 = -4037.79729559 Eh
CI-ITERATION   0: 
 -4043.806012477   0.000000000005 (    0.00)
 -4043.806012468   0.000000000007
 -4043.806012423   0.000000000004
 -4043.806012396   0.000000000005
 -4043.806012370   0.000000000005
 -4043.806012367   0.000000000004
 -4043.806012350   0.000000000004
 -4043.750193703   0.000000000004
 -4043.750193686   0.000000000004
 -4043.750193675   0.000000000002
   CI-PROBLEM SOLVED
   DENSITIES MADE
CI-ITERATION   0: 
 -4043.746199109   0.000000000005 (    0.00)
 -4043.746199108   0.000000000005
 -4043.746199096   0.000000000006
 -4043.746199096   0.000000000005
 -4043.746199047   0.000000000006
 -4043.746199045   0.000000000005
 -4043.746199013   0.000000000004
 -4043.746198986   0.000000000004
 -4043.746198975   0.000000000005
 -4043.727592941   0.000000000003
 -4043.727592854   0.000000000006
 -4043.727592847   0.000000000007
 -4043.727592845   0.000000000005
 -4043.727592837   0.000000000008
 -4043.727592837   0.000000000008
 -4043.727592815   0.000000000004
 -4043.727592812   0.000000000006
 -4043.727592803   0.000000000004
 -4043.727592779   0.000000000005
 -4043.727592778   0.000000000005
 -4043.727592774   0.000000000007
 -4043.727592774   0.000000000007
 -4043.727592684   0.000000000005
[...]
   19          0.485533000000         0.001443915711
   20          0.215792000000        -0.000836861400
  1 13
    1      15811.757705000000         0.000820630882
    2       6324.703082000000         0.001109281281
    3       2529.881233000000         0.005861125384
    4       1011.952493000000         0.020674146454
    5        404.780997000000         0.079113865108
    6        161.912399000000         0.242701401437
    7         64.764960000000         0.472442693127
    8         25.905984000000         0.333937774874
    9         10.362394000000         0.031161990204
   10          4.144957000000         0.005212011343
   11          1.657983000000        -0.003077407172
   12          0.663193000000         0.001858407582
   13          0.265277000000        -0.001060752241
  0 21
    1    1060482.828478999902         0.000297403821
    2     471325.701546000026        -0.000134354560
    3     209478.089575999998         0.000605497158
    4      93101.373145000005         0.000330280732
    5      41378.388063999999         0.001393959062
    6      18390.394694999999         0.002244902119
    7       8173.508753000000         0.005349314023
    8       3632.670557000000         0.011258364491
    9       1614.520248000000         0.028406464785
   10        717.564554000000         0.056317670541
   11        318.917580000000         0.098149167247
   12        141.741147000000         0.060243628595
   13         62.996065000000        -0.247378972532
   14         27.998251000000        -0.621620307418
   15         12.443667000000         0.050682161240
   16          5.530519000000         0.903275216095
   17          2.458008000000         0.307129088878
   18          1.092448000000        -0.007779990595
   19          0.485533000000         0.008469314015
   20          0.215792000000        -0.003754881489
   21          0.095908000000         0.001644557865
  1 14
    1      15811.757705000000         0.000382033604
    2       6324.703082000000         0.000516410892
    3       2529.881233000000         0.002728567623
    4       1011.952493000000         0.009624569166
    5        404.780997000000         0.036830389511
    6        161.912399000000         0.112986353751
    7         64.764960000000         0.248582605325
    8         25.905984000000         0.082225911126
    9         10.362394000000        -0.548732062975
   10          4.144957000000        -0.537585882560
   11          1.657983000000        -0.037686959095
   12          0.663193000000        -0.011421251588
   13          0.265277000000         0.006565910715
   14          0.106111000000        -0.003360532776
  2 9
    1        475.665155000000         0.002745819320
    2        169.880413000000         0.017351581761
    3         60.671576000000         0.102434366907
    4         21.668420000000         0.352548580101
    5          7.738721000000         0.535642974843
    6          2.763829000000         0.239582939245
    7          0.987082000000         0.004493338467
    8          0.352529000000         0.004744201968
    9          0.125903000000        -0.001565999039
  0 21
    1    1060482.828478999902         0.000117953445
    2     471325.701546000026        -0.000053286414
    3     209478.089575999998         0.000240146463
    4      93101.373145000005         0.000130992769
    5      41378.388063999999         0.000552858645
    6      18390.394694999999         0.000890351501
    7       8173.508753000000         0.002121593511
    8       3632.670557000000         0.004465184311
    9       1614.520248000000         0.011269605121
   10        717.564554000000         0.022595616146
   11        318.917580000000         0.039076794168
   12        141.741147000000         0.025646565626
   13         62.996065000000        -0.108742595590
   14         27.998251000000        -0.279931698389
   15         12.443667000000         0.015009257414
   16          5.530519000000         0.731244018038
   17          2.458008000000         0.347912614401
   18          1.092448000000        -0.874491858167
   19          0.485533000000        -0.532327972071
   20          0.215792000000        -0.014252097966
   21          0.095908000000        -0.003641088859
  1 14
    1      15811.757705000000         0.000143825320
    2       6324.703082000000         0.000194414735
    3       2529.881233000000         0.001027231917
    4       1011.952493000000         0.003623389998
    5        404.780997000000         0.013865645588
    6        161.912399000000         0.042536306517
    7         64.764960000000         0.095643997190
    8         25.905984000000         0.023244358617
    9         10.362394000000        -0.281213646224
   10          4.144957000000        -0.308096628921
   11          1.657983000000         0.462982749987
   12          0.663193000000         0.650058517176
   13          0.265277000000         0.104953707336
   14          0.106111000000        -0.001345980327
  2 12
    1        475.665155000000         0.000835241300
    2        169.880413000000         0.005278117758
    3         60.671576000000         0.031159156467
    4         21.668420000000         0.107240535587
    5          7.738721000000         0.162935387483
    6        475.665155000000        -0.000000000777
    7        169.880413000000        -0.000000004910
    8         60.671576000000        -0.000000028986
    9          2.763829000000        -0.095017155312
   10          0.987082000000        -0.531081869498
   11          0.352529000000        -0.489315093317
   12          0.125903000000        -0.062380390905
  end

-------------------------------------------------------------
 Forming the transition density       ... done in 0.081074 sec
-------------------------------------------------------------



==========================================
CASSCF UV, CD spectra and dipole moments
==========================================
-------------------
ABSORPTION SPECTRUM
-------------------

Center of mass           = (  0.0000,  0.0000,  0.0000)
Nuclear contribution to the dipole moment =     0.000000,    0.000000,    0.000000 au

Calculating the Dipole integrals                  ... done
Transforming integrals                            ... done
Calculating the Linear Momentum integrals         ... done
Transforming integrals                            ... done
Calculating the Angular Momentum integrals        ... done
Transforming integrals                            ... done

------------------------------------------------------------------------------------------
                                ABSORPTION SPECTRUM
------------------------------------------------------------------------------------------
  States           Energy   Wavelength   fosc          T2        TX         TY        TZ  
                   (cm-1)     (nm)                   (D**2)      (D)        (D)       (D) 
------------------------------------------------------------------------------------------
  0( 0)-> 1( 0) 4       0.0   5142417981.3   0.000000000   0.00000   0.00000   0.00000   0.00000
  0( 0)-> 2( 0) 4       0.0   834484391.7   0.000000000   0.00000  -0.00000  -0.00000   0.00000
  0( 0)-> 3( 0) 4       0.0   562873565.8   0.000000000   0.00000  -0.00000  -0.00000   0.00000
  0( 0)-> 4( 0) 4       0.0   426424667.3   0.000000000   0.00000   0.00000  -0.00000  -0.00000
  0( 0)-> 5( 0) 4       0.0   414525141.5   0.000000000   0.00000  -0.00000   0.00000   0.00000
  0( 0)-> 6( 0) 4       0.0   358287967.9   0.000000000   0.00000   0.00000  -0.00000  -0.00000
  0( 0)-> 7( 0) 4   12250.8    816.3   0.000000000   0.00000  -0.00000  -0.00000   0.00000
  0( 0)-> 8( 0) 4   12250.8    816.3   0.000000000   0.00000  -0.00000   0.00000   0.00000
  0( 0)-> 9( 0) 4   12250.8    816.3   0.000000000   0.00000  -0.00000   0.00000   0.00000
------------------------------------------------------------------------------------------



------------------------------------------------------------------------------
                             CD SPECTRUM
------------------------------------------------------------------------------
      States        Energy   Wavelength   R*T        RX        RY        RZ   
                    (cm-1)      (nm)   (1e40*sgs)   (au)      (au)      (au)  
------------------------------------------------------------------------------
  0( 0)-> 1( 0) 4       0.0   5142417981.3    -0.00000  -0.71327   0.68855   0.12222
  0( 0)-> 2( 0) 4       0.0   834484391.7    -0.00000  -0.62201  -0.56303  -0.50412
  0( 0)-> 3( 0) 4       0.0   562873565.8     0.00000  -0.00178  -0.01068   0.18950
  0( 0)-> 4( 0) 4       0.0   426424667.3    -0.00000   0.02262   0.09267  -0.43139
  0( 0)-> 5( 0) 4       0.0   414525141.5    -0.00000  -0.32409  -0.44740   0.70762
  0( 0)-> 6( 0) 4       0.0   358287967.9     0.00000   0.05658   0.00555  -0.06169
  0( 0)-> 7( 0) 4   12250.8    816.3    -0.00000   0.00000   0.00000  -0.00000
  0( 0)-> 8( 0) 4   12250.8    816.3     0.00000   0.00000   0.00000   0.00000
  0( 0)-> 9( 0) 4   12250.8    816.3     0.00000  -0.00000   0.00000   0.00000
------------------------------------------------------------------------------

------------------------------------------------------------------------------
                                 DIPOLE MOMENTS
------------------------------------------------------------------------------
  Root  Block           TX        TY        TZ           |T|
                      (Debye)   (Debye)   (Debye)      (Debye)
------------------------------------------------------------------------------
    0    0            0.00000   0.00000  -0.00000      0.00000

--------------
CASSCF TIMINGS
--------------

Total time                       ...        4.9 sec
Sum of individual times          ...        2.7 sec ( 54.3%)

Calculation of AO operators
   F(Core) operator              ...        0.4 sec (  9.1%)
   G(Act) operator               ...        0.4 sec (  9.1%)
Calculation of MO transformed quantities
   J(MO) operators               ...        1.1 sec ( 22.0%)
   AO->MO one electron integrals ...        0.0 sec (  0.1%)
Configuration interaction steps
   CI-setup phase                ...        0.0 sec (  0.0%)
   CI-solution phase             ...        0.3 sec (  6.0%)
   Generation of densities       ...        0.1 sec (  1.0%)
Orbital improvement steps
   Orbital gradient              ...        0.1 sec (  2.5%)
   O(1) converger                ...        0.0 sec (  0.2%)
CPCM steps
   Total CPCM time               ...        0.1 sec (  2.6%)
Properties                       ...        0.1 sec (  1.6%)
   SOC integral calculation      ...        0.0 sec (  0.0%)
   SSC RMEs (incl. integrals)    ...        0.0 sec (  0.0%)
   SOC RMEs                      ...        0.0 sec (  0.0%)

Maximum memory used throughout the entire CASSCF-calculation: 118.9 MB


           ************************************************************
           *        Program running with 12 parallel MPI-processes    *
           *              working on a common directory               *
           ************************************************************

------------------------------------------------------------------------------
                         ORCA PROPERTY INTEGRAL CALCULATIONS
------------------------------------------------------------------------------

GBWName                                   ... mol.gbw
Number of atoms                           ...      1
Number of basis functions                 ...     77
Max core memory                           ...   1024 MB

Dipole integrals                          ... YES
Quadrupole integrals                      ...  NO
Linear Momentum integrals                 ...  NO
Angular Momentum integrals                ...  NO
Higher Moments length integrals           ...  NO
Higher Moments velocity integrals         ...  NO
Kinetic energy integrals                  ...  NO
GIAO Right Hand Sides                     ...  NO
SOC integrals                             ...  NO
EPR diamagnetic integrals (GIAO)          ...  NO
EPR gauge integrals                       ...  NO
Field gradient integrals                  ...  NO (   0 nuclei)
Spin-dipole/Fermi contact integrals       ...  NO (   0 nuclei)
Nucleus-orbit integrals                   ...  NO (   0 nuclei)
Geometric perturbations                   ...  NO (   1 nuclei)
Electric origin: (  0.0000,  0.0000,  0.0000) 
Magnetic origin: (  0.0000,  0.0000,  0.0000) 

Calculating integrals                     ... Electric Dipole (Length)     done (  0.2 sec)

Property integrals calculated in   0.2 sec

Maximum memory used throughout the entire PROPINT-calculation: 6.1 MB

-------------------------   --------------------
FINAL SINGLE POINT ENERGY     -4043.746778120595
-------------------------   --------------------


                            ***************************************
                            *     ORCA property calculations      *
                            ***************************************

                                    ---------------------
                                    Active property flags
                                    ---------------------
   (+) Dipole Moment


------------------------------------------------------------------------------
                       ORCA ELECTRIC PROPERTIES CALCULATION
------------------------------------------------------------------------------

Dipole Moment Calculation                       ... ON
Quadrupole Moment Calculation                   ... OFF
Polarizability Calculation                      ... OFF
Atomic Dipole Moment Calculation                ... OFF
Atomic Quadrupole Moment Calculation            ... OFF
Atomic Polarizability Calculation               ... OFF
Relativistic picture-change correction          ... OFF
GBWName                                         ... mol.gbw
Electron density                                ... mol.scfp

The origin for moment calculation is the CENTER OF MASS  = ( 0.000000,  0.000000  0.000000)

-------------
DIPOLE MOMENT
-------------
                                X             Y             Z
Electronic contribution:      0.00000       0.00000      -0.00000
Nuclear contribution   :      0.00000       0.00000       0.00000
                        -----------------------------------------
Total Dipole Moment    :      0.00000       0.00000      -0.00000
                        -----------------------------------------
Magnitude (a.u.)       :      0.00000
Magnitude (Debye)      :      0.00000



--------------------
Rotational spectrum 
--------------------
 
Rotational constants in cm-1:     0.000000     0.000000     0.000000 
Rotational constants in MHz :     0.000000     0.000000     0.000000 

 Dipole components along the rotational axes: 
x,y,z [a.u.] :     0.000000     0.000000    -0.000000 
x,y,z [Debye]:     0.000000     0.000000    -0.000000 

 

--------------------------------
SUGGESTED CITATIONS FOR THIS RUN
--------------------------------

Below you find a list of papers that are relevant to this ORCA run
We neither can nor want to force you to cite these paper, but we appreciate if you do
You receive ORCA, which is the product of a lot of hard work by many enthusiastic individuals, for free
The only thing we kindly ask in return is that you cite our papers,
We deeply appreciate it, if you show your appreciation for ORCA by not just citing the generic ORCA reference.

Please note that relegating all ORCA citations to the supporting information does *not* help us.
SI sections are not indexed - citations you put there will not count into any citation statistics
But we need these citations in order to attract the funding resources that allow us to do what we are doing

Therefore, if you are a happy ORCA user, please consider citing a few of the papers listed below in the main body of your paper

In addition to the list printed below, the program has created the file mol.bibtex that contains the list in bibtex format
You can import this file easily into all common literature databanks and citation aid programs


List of essential papers. We consider these as the minimum necessary citations

  1. Neese,F.
     Software update: the ORCA program system, version 5.0
     WIRES Comput. Molec. Sci., 2022 12(1)e1606
     doi.org/10.1002/wcms.1606

List of papers to cite with high priority. The work reported in these papers was absolutely
necessary for this run to complete.
Our perspective: the developers of density functionals and basis sets usually get cited in chemistry papers
Good! But without the algorithms to do something with them, the functionals or basis sets would not do anything.
Hence, in our opinion, the algorithm design and method developments papers are equally worthy of getting cited

  1. Kollmar,C.; Sivalingam,K.; Helmich-Paris,B.; Angeli,C.; Neese,F.
     A perturbation-based super-CI approach for the orbital optimization of a CASSCF wave function
     J. Comput. Chem., 2019 40 1463-1470
     doi.org/10.1002/jcc.25801
  2. Neese,F.
     The SHARK Integral Generation and Digestion System
     J. Comp. Chem., 2022  1-16
     doi.org/10.1002/jcc.26942

List of suggested additional citations. These are papers that are important in the 'surrounding' of 
of this run, or papers that preceded the highly important papers. If you like your results we are grateful for a citation.

  1. Neese,F.
     The ORCA program system
     WIRES Comput. Molec. Sci., 2012 2(1)73-78
     doi.org/10.1002/wcms.81
  2. Neese,F.
     Software update: the ORCA program system, version 4.0
     WIRES Comput. Molec. Sci., 2018 8(1)1-6
     doi.org/10.1002/wcms.1327
  3. Neese,F.; Wennmohs,F.; Becker,U.; Riplinger,C.
     The ORCA quantum chemistry program package
     J. Chem. Phys., 2020 152 Art. No. L224108
     doi.org/10.1063/5.0004608

Timings for individual modules:

Sum of individual times         ...        8.510 sec (=   0.142 min)
GTO integral calculation        ...        1.684 sec (=   0.028 min)  19.8 %
Relativistic integrals          ...        0.334 sec (=   0.006 min)   3.9 %
SCF iterations                  ...        0.309 sec (=   0.005 min)   3.6 %
CASSCF iterations               ...        5.254 sec (=   0.088 min)  61.7 %
Property integrals              ...        0.930 sec (=   0.015 min)  10.9 %
                             ****ORCA TERMINATED NORMALLY****
TOTAL RUN TIME: 0 days 0 hours 0 minutes 8 seconds 897 msec
'mol.bibtex' -> '/csnfs/users/llang/calculations/ICE_SOC_SSC/Mo_HIPT_NH3/scalarrel/CASSCF_3_5_startorbs/mergefrag_startorbs/Mo/rotated_pmodelguess/mol.bibtex'
'mol.densities' -> '/csnfs/users/llang/calculations/ICE_SOC_SSC/Mo_HIPT_NH3/scalarrel/CASSCF_3_5_startorbs/mergefrag_startorbs/Mo/rotated_pmodelguess/mol.densities'
'mol.err' -> '/csnfs/users/llang/calculations/ICE_SOC_SSC/Mo_HIPT_NH3/scalarrel/CASSCF_3_5_startorbs/mergefrag_startorbs/Mo/rotated_pmodelguess/mol.err'
'mol.gbw' -> '/csnfs/users/llang/calculations/ICE_SOC_SSC/Mo_HIPT_NH3/scalarrel/CASSCF_3_5_startorbs/mergefrag_startorbs/Mo/rotated_pmodelguess/mol.gbw'
'mol.job' -> '/csnfs/users/llang/calculations/ICE_SOC_SSC/Mo_HIPT_NH3/scalarrel/CASSCF_3_5_startorbs/mergefrag_startorbs/Mo/rotated_pmodelguess/mol.job'
'mol_property.txt' -> '/csnfs/users/llang/calculations/ICE_SOC_SSC/Mo_HIPT_NH3/scalarrel/CASSCF_3_5_startorbs/mergefrag_startorbs/Mo/rotated_pmodelguess/mol_property.txt'
'pmodel.gbw' -> '/csnfs/users/llang/calculations/ICE_SOC_SSC/Mo_HIPT_NH3/scalarrel/CASSCF_3_5_startorbs/mergefrag_startorbs/Mo/rotated_pmodelguess/pmodel.gbw'
cp: cannot stat 'mol.asa.inp': No such file or directory
cp: missing destination file operand after '/csnfs/users/llang/calculations/ICE_SOC_SSC/Mo_HIPT_NH3/scalarrel/CASSCF_3_5_startorbs/mergefrag_startorbs/Mo/rotated_pmodelguess/'
Try 'cp --help' for more information.
