! Job execution by suborca V 10.01 !
Job started from head1.mpi-muelheim.mpg.de, running /hsnfs/software/orca/orca_stable_directory/orca_stable_20250509/orca on xe30th111.mpi-muelheim.mpg.de in /usr/scratch/llang/mol__18400222 (/bin/bash)
Job execution start: Fri May  9 16:12:37 CEST 2025
Shared library path: /hsnfs/software/openmpi-4.1.0/lib:/hsnfs/software/orca/orca_stable_directory/orca_stable_20250509:/hsnfs/software/themis/llvm-14.0.1/lib::/hsnfs/software/cfour-2.1/lib:/hsnfs/software/orca/orca_stable:/usr/users/openmpi-2.0.4/lib:/opt/intel/lib/intel64:/opt/intel/mkl/lib/intel64
SLURM Job ID is: 18400222
SLURM_JOB_NODELIST: xe30th111
Maxcore enforced by SLURM: 4096 MB per core
Expanded nodelist (1 nodes):
xe30th111

                                 *****************
                                 * O   R   C   A *
                                 *****************

                                            #,                                       
                                            ###                                      
                                            ####                                     
                                            #####                                    
                                            ######                                   
                                           ########,                                 
                                     ,,################,,,,,                         
                               ,,#################################,,                 
                          ,,##########################################,,             
                       ,#########################################, ''#####,          
                    ,#############################################,,   '####,        
                  ,##################################################,,,,####,       
                ,###########''''           ''''###############################       
              ,#####''   ,,,,##########,,,,          '''####'''          '####       
            ,##' ,,,,###########################,,,                        '##       
           ' ,,###''''                  '''############,,,                           
         ,,##''                                '''############,,,,        ,,,,,,###''
      ,#''                                            '''#######################'''  
     '                                                          ''''####''''         
             ,#######,   #######,   ,#######,      ##                                
            ,#'     '#,  ##    ##  ,#'     '#,    #''#        ,####,   ,####,        
            ##       ##  ##   ,#'  ##            #'  '#       #'       #'  '#        
            ##       ##  #######   ##           ,######,      #####,   #    #        
            '#,     ,#'  ##    ##  '#,     ,#' ,#      #,     #,   #   #,  ,#        
             '#######'   ##     ##  '#######'  #'      '#     '####' # '####'        



                #########################################################
                #                        -***-                          #
                #          Department of theory and spectroscopy        #
                #                                                       #
                #                      Frank Neese                      #
                #                                                       #
                #     Directorship, Architecture, Infrastructure        #
                #                    SHARK, DRIVERS                     #
                #        Core code/Algorithms in most modules           #
                #                                                       #
                #        Max Planck Institute fuer Kohlenforschung      #
                #                Kaiser Wilhelm Platz 1                 #
                #                 D-45470 Muelheim/Ruhr                 #
                #                      Germany                          #
                #                                                       #
                #                  All rights reserved                  #
                #                        -***-                          #
                #########################################################


                         Program Version 6.0.x  -   STABLE   -
                                (GIT: $2aa3202e$)
                ($2025-04-04 13:37:10 +0200 $)

                         (BUILD: $Fri 09 May 2025 01:16:44 AM CEST$)


 With contributions from (in alphabetic order):
[Max-Planck-Institut fuer Kohlenforschung]                               
  Daniel Aravena         : Magnetic Suceptibility                        
  Michael Atanasov       : Ab Initio Ligand Field Theory (pilot matlab implementation)
  Alexander A. Auer      : GIAO ZORA, VPT2 properties, NMR spectrum      
  Ute Becker             : All parallelization in ORCA, NUMFREQ, NUMCALC 
  Giovanni Bistoni       : ED, misc. LED, open-shell LED, HFLD           
  Martin Brehm           : Molecular dynamics                            
  Dmytro Bykov           : pre 5.0 version of the SCF Hessian            
  Marcos Casanova-Páez   : Triplet and SCS-CIS(D). UHF-(DLPNO)-IP/EA/STEOM-CCSD. UHF-CVS-IP/STEOM-CCSD   
  Vijay G. Chilkuri      : MRCI spin determinant printing, contributions to CSF-ICE 
  Pauline Colinet        : FMM embedding                                 
  Dipayan Datta          : RHF DLPNO-CCSD density                        
  Achintya Kumar Dutta   : EOM-CC, STEOM-CC                              
  Nicolas Foglia         : Exact transition moments, OPA infrastructure, MCD improvements    
  Dmitry Ganyushin       : Spin-Orbit,Spin-Spin,Magnetic field MRCI      
  Miquel Garcia-Rates    : C-PCM and meta-GGA Hessian, CCSD/C-PCM, Gaussian charge scheme 
  Tiago L. C. Gouveia    : GS-ROHF, GS-ROCIS                             
  Yang Guo               : DLPNO-NEVPT2, F12-NEVPT2, CIM, IAO-localization        
  Andreas Hansen         : Spin unrestricted coupled pair/coupled cluster methods 
  Ingolf Harden          : AUTO-CI MPn and infrastructure                
  Benjamin Helmich-Paris : MC-RPA, TRAH-(SCF,CASSCF), AVAS, COSX integrals, SCF dyn. polar. 
  Lee Huntington         : MR-EOM, pCC                                   
  Robert Izsak           : Overlap fitted RIJCOSX, COSX-SCS-MP3, EOM     
  Riya Kayal             : Wick's Theorem for AUTO-CI, AUTO-CI UHF-CCSDT 
  Emily Kempfer          : AUTO-CI, RHF CISDT and CCSDT                  
  Christian Kollmar      : KDIIS, OOCD, Brueckner-CCSD(T), CCSD density, CASPT2, CASPT2-K, improved NEVPT2 
  Axel Koslowski         : Symmetry handling                             
  Simone Kossmann        : meta-GGA functionals, TD-DFT gradient, OOMP2, (MP2 Hessian; deprecated post 5.0) 
  Lucas Lang             : DCDCAS                                        
  Marvin Lechner         : AUTO-CI (C++ implementation), FIC-MRCC        
  Spencer Leger          : CASSCF response                               
  Dagmar Lenk            : GEPOL surface, SMD, ORCA-2-JSON               
  Dimitrios Liakos       : Extrapolation schemes; Compound Job, initial MDCI parallelization 
  Dimitrios Manganas     : Further ROCIS development; embedding schemes. LFT, Crystal Embedding 
  Dimitrios Pantazis     : SARC Basis sets                               
  Anastasios Papadopoulos: AUTO-CI, single reference methods and gradients 
  Taras Petrenko         : pre 6.0 DFT Hessian and TD-DFT gradient, (ASA, deprecated), ECA, 1-Electron XAS/XES, NRVS 
  Peter Pinski           : DLPNO-MP2, DLPNO-MP2 Gradient                 
  Christoph Reimann      : Effective Core Potentials                     
  Marius Retegan         : Local ZFS, SOC                                
  Christoph Riplinger    : Optimizer, TS searches, QM/MM, DLPNO-CCSD(T), (RO)-DLPNO pert. Triples 
  Michael Roemelt        : Original ROCIS implementation                 
  Masaaki Saitow         : Open-shell DLPNO-CCSD energy and density      
  Barbara Sandhoefer     : DKH picture change effects                    
  Kantharuban Sivalingam : CASSCF convergence/infrastructure, NEVPT2 and variants, FIC-MRCI 
  Bernardo de Souza      : ESD, SOC TD-DFT                               
  Georgi L. Stoychev     : AutoAux, RI-MP2 NMR, DLPNO-MP2 response, X2C  
  Van Anh Tran           : RI-MP2 g-tensors                              
  Willem Van den Heuvel  : Paramagnetic NMR                              
  Zikuan Wang            : NOTCH, Electric field optimization            
  Frank Wennmohs         : Technical directorship and infrastructure     
  Hang Xu                : AUTO-CI-Response properties                   
                                                                         
[FACCTs GmbH]                                                            
  Markus Bursch, Miquel Garcia-Rates, Christoph Riplinger, Bernardo de Souza, Georgi L. Stoychev 
                                                                 
  APM, Basis sets (HGBS, AHGBS, def-TZVP (Ac-Lr), def2-XVPD (La-Lu)), CI-OPT, improved COSX, DLPNO-Multilevel,           
  DOCKER, DRACO, updates on ESD, GOAT, IRC, LR-CPCM, MBIS, meta-GGA TD-DFT gradient, ML-optimized integration grids, 
  MM, NACMEs, nearIR, NEB, NEB-TS, NL-DFT gradient (VV10), 2- and 3-layer-ONIOM, interface openCOSMO-RS, QMMM,   
  Crystal-QMMM, SF, symmetry and pop. for TD-DFT, r2SCAN hybrids, SOLVATOR                                   
                                                                         
[Other institutions]                                                     
  V. Asgeirsson          : NEB                                           
  Christoph Bannwarth    : sTDA-DFT, sTD-DFT, PBEh-3c, B97-3c, D3        
  Sebastian Ehlert       : rSCAN, r2SCAN, r2SCAN-3c, D4, dhf basis sets  
  Marvin Friede          : D4 for Fr, Ra, Ac-Lr                          
  Lars Goerigk           : TD-DFT with DH, B97 family of functionals     
  Stefan Grimme          : VdW corrections, initial TS optimization, DFT functionals, gCP, sTDA/sTD-DF 
  Waldemar Hujo          : DFT-NL                                        
  H. Jonsson             : NEB                                           
  Holger Kruse           : gCP                                           
  Marcel Mueller         : wB97X-3c, vDZP basis set                      
  Hagen Neugebauer       : wr2SCAN                                       
  Tobias Risthaus        : range-separated hybrid DFT                    
  Lukas Wittmann         : regularized MP2, r2SCAN double-hybrids, wr2SCAN        
                                                                         
We gratefully acknowledge several colleagues who have allowed us to      
interface, adapt or use parts of their codes:                            
  Ed Valeev, F. Pavosevic, A. Kumar             : LibInt (2-el integral package), F12 methods 
  Garnet Chan, S. Sharma, J. Yang, R. Olivares  : DMRG                   
  Ulf Ekstrom                                   : XCFun DFT Library      
  Mihaly Kallay                                 : mrcc  (arbitrary order and MRCC methods)
  Frank Weinhold                                : gennbo (NPA and NBO analysis)           
  Simon Mueller                                 : openCOSMO-RS                            
  Christopher J. Cramer and Donald G. Truhlar   : smd solvation model                     
  S Lehtola, MJT Oliveira, MAL Marques          : LibXC Library                           
  Liviu Ungur et al                             : ANISO software                          


 Your calculation uses the libint2 library for the computation of 2-el integrals
 For citations please refer to: http://libint.valeyev.net

 Your ORCA version has been built with support for libXC version: 6.2.2
 For citations please refer to: https://libxc.gitlab.io

 This ORCA versions uses:
   CBLAS   interface :  Fast vector & matrix operations
   LAPACKE interface :  Fast linear algebra routines
   SCALAPACK package :  Parallel linear algebra routines
   Shared memory     :  Shared parallel matrices
   BLAS/LAPACK       :  OpenBLAS 0.3.26  USE64BITINT DYNAMIC_ARCH NO_AFFINITY Haswell SINGLE_THREADED
        Core in use  :  Haswell
   Copyright (c) 2011-2014, The OpenBLAS Project


NOTE: MaxCore=4000 MB was set to SCF,MP2,MDCI,CIPSI,MRCI and CIS
      => If you want to overwrite this, your respective input block should be placed after the MaxCore statement
================================================================================

----- Orbital basis set information -----
Your calculation utilizes the basis: DKH-def2-TZVP
   Exponents from def2-TZVP [F. Weigend and R. Ahlrichs, Phys. Chem. Chem. Phys. 7, 3297 (2005)],
   recontracted for DKH2 by D. A. Pantazis.

The basis set includes element-specific modifications.

Your calculation utilizes the basis: SARC-DKH-TZVP 
   Rb-Xe:  J. D. Rolfes, F. Neese and D. A. Pantazis, J. Comput. Chem. 41, 1842 (2020).
   La-Lu:  D. A. Pantazis and F. Neese, J. Chem. Theory Comput. 5, 2229 (2009).
   Hf-Hg:  D. A. Pantazis, X. Y. Chen, C. R. Landis and F. Neese, J. Chem. Theory Comput. 4, 908 (2008).
   Tl-Rn:  D. A. Pantazis and F. Neese, Theor. Chem. Acc. 131, 1292 (2012).
   Ac-Lr:  D. A. Pantazis and F. Neese, J. Chem. Theory Comput. 7, 677 (2011).

----- AuxJ basis set information -----
Your calculation utilizes the AutoAux generation procedure.
  G. L. Stoychev, A. A. Auer, F. Neese, J. Chem. Theory Comput. 13, 554 (2017)

----- AuxC basis set information -----
Your calculation utilizes the AutoAux generation procedure.
  G. L. Stoychev, A. A. Auer, F. Neese, J. Chem. Theory Comput. 13, 554 (2017)

----- AuxJK basis set information -----
Your calculation utilizes the AutoAux generation procedure.
  G. L. Stoychev, A. A. Auer, F. Neese, J. Chem. Theory Comput. 13, 554 (2017)

----- AuxX basis set information -----
Your calculation utilizes the AutoAux generation procedure.
  G. L. Stoychev, A. A. Auer, F. Neese, J. Chem. Theory Comput. 13, 554 (2017)

================================================================================
                                        WARNINGS
                       Please study these warnings very carefully!
================================================================================


WARNING: Relativistic property calculations require picture change transformations!
  ===> : Setting %rel PictureChange = 2

CAS(DoGTensor), calculation requested: setting Magnetic origin to Nuclear Charge center

IMPORTANT NOTE: CASSCF must signal convergence for a subsequent CASPT2/NEVPT2! 
                Set maxiter=1 to run CASPT2/NEVPT2 with arbitrary orbitals.


================================================================================
                                       INPUT FILE
================================================================================
NAME = mol.inp
|  1> ! DKH2 DKH-def2-TZVP RI-NEVPT2 autoaux pal8
|  2> 
|  3> %maxcore 4000
|  4> 
|  5> %casscf
|  6>   nel 3
|  7>   norb 5
|  8>   mult 2
|  9>   nroots 2
| 10>   rel
| 11>     dosoc true
| 12>     gtensor true
| 13>   end
| 14> end
| 15> 
| 16> %basis
| 17>   NewGTO Mo "SARC-DKH-TZVP" end
| 18> end
| 19> 
| 20> * xyz 0 2
| 21> Mo 0.000000 0.000000 0.000000
| 22> N 0.000000 -0.000000 2.216533
| 23> N -0.285171 0.004718 -2.279534
| 24> N 2.004311 0.474895 0.316334
| 25> N -0.518640 -1.927117 0.328953
| 26> N -1.436837 1.399372 0.350965
| 27> C 2.970024 0.928749 -0.594152
| 28> C -0.581237 -2.365423 1.743326
| 29> C -0.830393 -1.164002 2.652054
| 30> C -0.582721 1.300275 2.658544
| 31> C -1.760506 1.681705 1.765676
| 32> C -2.297164 2.076237 -0.555955
| 33> C -1.863288 3.517436 -0.893714
| 34> C 2.318314 0.721784 1.731216
| 35> C 1.427336 -0.143035 2.619678
| 36> C -0.748254 -2.988987 -0.591353
| 37> C -2.225153 -3.401980 -0.777574
| 38> C 4.230037 0.039526 -0.716681
| 39> H 3.306753 1.968583 -0.362264
| 40> H -0.884911 1.257688 3.734853
| 41> H 0.214347 2.063803 2.551589
| 42> H -1.987450 2.762476 1.926932
| 43> H -2.688755 1.130205 2.070077
| 44> H 1.560266 0.116824 3.699429
| 45> H 1.702564 -1.208656 2.481159
| 46> H -1.891664 -0.853055 2.556872
| 47> H -0.634431 -1.411885 3.724765
| 48> H -1.396483 -3.106776 1.917960
| 49> H 0.368415 -2.890826 2.024018
| 50> H -1.174880 0.491053 -2.522161
| 51> H 0.462152 0.518729 -2.788176
| 52> H -0.336996 -0.936202 -2.722830
| 53> H 2.201169 1.801001 2.006636
| 54> H 3.382951 0.463776 1.952892
| 55> H 2.515735 0.996716 -1.600586
| 56> H -3.345231 2.108265 -0.176930
| 57> H -2.372707 1.512731 -1.505640
| 58> H -0.168591 -3.895865 -0.302868
| 59> H -0.343914 -2.702078 -1.579029
| 60> H -2.820366 -2.544804 -1.127277
| 61> H -2.321620 -4.218722 -1.511452
| 62> H -2.669196 -3.751571 0.166806
| 63> H -1.822879 4.142017 0.011595
| 64> H -0.857324 3.512842 -1.339810
| 65> H -2.563100 3.993966 -1.599621
| 66> H 4.935889 0.454691 -1.454255
| 67> H 4.763546 -0.040601 0.242620
| 68> H 3.947836 -0.976362 -1.030904
| 69> *
| 70> 
| 71>                          ****END OF INPUT****
================================================================================

                       ****************************
                       * Single Point Calculation *
                       ****************************

---------------------------------
CARTESIAN COORDINATES (ANGSTROEM)
---------------------------------
  Mo     0.000000    0.000000    0.000000
  N      0.000000   -0.000000    2.216533
  N     -0.285171    0.004718   -2.279534
  N      2.004311    0.474895    0.316334
  N     -0.518640   -1.927117    0.328953
  N     -1.436837    1.399372    0.350965
  C      2.970024    0.928749   -0.594152
  C     -0.581237   -2.365423    1.743326
  C     -0.830393   -1.164002    2.652054
  C     -0.582721    1.300275    2.658544
  C     -1.760506    1.681705    1.765676
  C     -2.297164    2.076237   -0.555955
  C     -1.863288    3.517436   -0.893714
  C      2.318314    0.721784    1.731216
  C      1.427336   -0.143035    2.619678
  C     -0.748254   -2.988987   -0.591353
  C     -2.225153   -3.401980   -0.777574
  C      4.230037    0.039526   -0.716681
  H      3.306753    1.968583   -0.362264
  H     -0.884911    1.257688    3.734853
  H      0.214347    2.063803    2.551589
  H     -1.987450    2.762476    1.926932
  H     -2.688755    1.130205    2.070077
  H      1.560266    0.116824    3.699429
  H      1.702564   -1.208656    2.481159
  H     -1.891664   -0.853055    2.556872
  H     -0.634431   -1.411885    3.724765
  H     -1.396483   -3.106776    1.917960
  H      0.368415   -2.890826    2.024018
  H     -1.174880    0.491053   -2.522161
  H      0.462152    0.518729   -2.788176
  H     -0.336996   -0.936202   -2.722830
  H      2.201169    1.801001    2.006636
  H      3.382951    0.463776    1.952892
  H      2.515735    0.996716   -1.600586
  H     -3.345231    2.108265   -0.176930
  H     -2.372707    1.512731   -1.505640
  H     -0.168591   -3.895865   -0.302868
  H     -0.343914   -2.702078   -1.579029
  H     -2.820366   -2.544804   -1.127277
  H     -2.321620   -4.218722   -1.511452
  H     -2.669196   -3.751571    0.166806
  H     -1.822879    4.142017    0.011595
  H     -0.857324    3.512842   -1.339810
  H     -2.563100    3.993966   -1.599621
  H      4.935889    0.454691   -1.454255
  H      4.763546   -0.040601    0.242620
  H      3.947836   -0.976362   -1.030904

----------------------------
CARTESIAN COORDINATES (A.U.)
----------------------------
  NO LB      ZA    FRAG     MASS         X           Y           Z
   0 Mo   42.0000    0    95.940    0.000000    0.000000    0.000000
   1 N     7.0000    0    14.007    0.000000   -0.000000    4.188640
   2 N     7.0000    0    14.007   -0.538895    0.008916   -4.307695
   3 N     7.0000    0    14.007    3.787599    0.897421    0.597785
   4 N     7.0000    0    14.007   -0.980088   -3.641723    0.621631
   5 N     7.0000    0    14.007   -2.715228    2.644430    0.663228
   6 C     6.0000    0    12.011    5.612532    1.755081   -1.122785
   7 C     6.0000    0    12.011   -1.098379   -4.470002    3.294409
   8 C     6.0000    0    12.011   -1.569215   -2.199645    5.011656
   9 C     6.0000    0    12.011   -1.101183    2.457164    5.023920
  10 C     6.0000    0    12.011   -3.326874    3.177962    3.336644
  11 C     6.0000    0    12.011   -4.341011    3.923519   -1.050603
  12 C     6.0000    0    12.011   -3.521104    6.646991   -1.688875
  13 C     6.0000    0    12.011    4.380979    1.363974    3.271524
  14 C     6.0000    0    12.011    2.697274   -0.270297    4.950474
  15 C     6.0000    0    12.011   -1.413995   -5.648367   -1.117495
  16 C     6.0000    0    12.011   -4.204930   -6.428811   -1.469402
  17 C     6.0000    0    12.011    7.993611    0.074693   -1.354331
  18 H     1.0000    0     1.008    6.248858    3.720083   -0.684580
  19 H     1.0000    0     1.008   -1.672239    2.376686    7.057849
  20 H     1.0000    0     1.008    0.405057    3.900022    4.821804
  21 H     1.0000    0     1.008   -3.755736    5.220323    3.641374
  22 H     1.0000    0     1.008   -5.081011    2.135778    3.911879
  23 H     1.0000    0     1.008    2.948475    0.220765    6.990908
  24 H     1.0000    0     1.008    3.217380   -2.284029    4.688711
  25 H     1.0000    0     1.008   -3.574727   -1.612040    4.831788
  26 H     1.0000    0     1.008   -1.198901   -2.668076    7.038786
  27 H     1.0000    0     1.008   -2.638970   -5.870956    3.624419
  28 H     1.0000    0     1.008    0.696203   -5.462869    3.824840
  29 H     1.0000    0     1.008   -2.220201    0.927956   -4.766194
  30 H     1.0000    0     1.008    0.873341    0.980256   -5.268889
  31 H     1.0000    0     1.008   -0.636830   -1.769165   -5.145403
  32 H     1.0000    0     1.008    4.159607    3.403399    3.791992
  33 H     1.0000    0     1.008    6.392851    0.876410    3.690431
  34 H     1.0000    0     1.008    4.754050    1.883520   -3.024669
  35 H     1.0000    0     1.008   -6.321570    3.984043   -0.334349
  36 H     1.0000    0     1.008   -4.483766    2.858647   -2.845247
  37 H     1.0000    0     1.008   -0.318591   -7.362118   -0.572338
  38 H     1.0000    0     1.008   -0.649903   -5.106187   -2.983932
  39 H     1.0000    0     1.008   -5.329719   -4.808983   -2.130245
  40 H     1.0000    0     1.008   -4.387226   -7.972229   -2.856230
  41 H     1.0000    0     1.008   -5.044049   -7.089442    0.315218
  42 H     1.0000    0     1.008   -3.444742    7.827278    0.021911
  43 H     1.0000    0     1.008   -1.620108    6.638309   -2.531874
  44 H     1.0000    0     1.008   -4.843557    7.547502   -3.022846
  45 H     1.0000    0     1.008    9.327478    0.859241   -2.748144
  46 H     1.0000    0     1.008    9.001797   -0.076725    0.458485
  47 H     1.0000    0     1.008    7.460329   -1.845057   -1.948126

--------------------------------
INTERNAL COORDINATES (ANGSTROEM)
--------------------------------
 Mo     0   0   0     0.000000000000     0.00000000     0.00000000
 N      1   0   0     2.216533000000     0.00000000     0.00000000
 N      1   2   0     2.297307122681   172.86834441     0.00000000
 N      1   2   3     2.083951785743    81.26902123   165.72249114
 N      1   2   4     2.022616487992    80.63998886   118.39263367
 N      1   2   5     2.036152987911    80.07454658   119.18022743
 C      4   1   2     1.402700897512   129.59520586   191.68867420
 C      5   1   2     1.482053142493   116.60386069   357.68785316
 C      2   1   5     1.494701218269   106.94039068   339.55910211
 C      2   1   5     1.491862112793   107.23439182   219.20260422
 C      6   1   2     1.478472440721   116.78598216   358.97688549
 C      6   1   2     1.421552904944   130.11612627   186.09137646
 C     12   6   1     1.542525229310   114.47733928   258.48690388
 C      4   1   2     1.470184728615   112.94031639   352.87876467
 C      2   1   5     1.490058038852   105.69738900    99.34039420
 C      5   1   2     1.423816568078   130.30129276   182.86284624
 C     16   5   1     1.544821068956   115.56104660   252.99785966
 C      7   4   1     1.547049986180   115.22430325   238.06689049
 H      7   4   1     1.117324130027   111.95566365   114.39079396
 H     10   2   1     1.118737463460   110.93901652   163.70436124
 H     10   2   1     1.108932719074   106.90443279   281.52632466
 H     11   6   1     1.116052432063   111.57377631   143.60447374
 H     11   6   1     1.121810333703   110.29862468   260.61931817
 H     15   2   1     1.118507624821   110.65396947   164.94706929
 H     15   2   1     1.109272771227   107.22360725   282.88082998
 H      9   2   1     1.109974677808   106.74042539   280.67425371
 H      9   2   1     1.118282601427   110.77940484   163.12596099
 H      8   5   1     1.115673493940   112.13317535   144.85208827
 H      8   5   1     1.121015268574   109.98573932   261.99633991
 H      3   1   5     1.042579348556   109.74332724   103.57811559
 H      3   1   5     1.039911370557   113.39980002   221.39030249
 H      3   1   5     1.041406558766   115.25825843   343.69766187
 H     14   4   1     1.119950204480   112.09563598   269.34809646
 H     14   4   1     1.117658408821   110.82783466   151.31138259
 H      7   4   1     1.106303486827   109.12725219   358.84375355
 H     12   6   1     1.114957478964   111.45026845   135.31235992
 H     12   6   1     1.106863747762   110.26006480    20.32938722
 H     16   5   1     1.114298207698   110.83848742   129.57054606
 H     16   5   1     1.105129626269   108.96841869    14.96738722
 H     17  16   5     1.100600471813   110.31125239    58.81922886
 H     17  16   5     1.102247837620   111.22449752   179.33318790
 H     17  16   5     1.100564235985   111.54367923   299.33705466
 H     13  12   6     1.100599245104   111.12656910   300.12860844
 H     13  12   6     1.100448233834   109.99809842    59.17039115
 H     13  12   6     1.102325890512   111.44146218   179.94739956
 H     18   7   4     1.102090934817   110.98448483   179.50985381
 H     18   7   4     1.100595565051   111.56887406   299.34196257
 H     18   7   4     1.100182678774   110.14853464    59.05089040

---------------------------
INTERNAL COORDINATES (A.U.)
---------------------------
 Mo     0   0   0     0.000000000000     0.00000000     0.00000000
 N      1   0   0     4.188640336799     0.00000000     0.00000000
 N      1   2   0     4.341281307374   172.86834441     0.00000000
 N      1   2   3     3.938098151351    81.26902123   165.72249114
 N      1   2   4     3.822191236259    80.63998886   118.39263367
 N      1   2   5     3.847771513917    80.07454658   119.18022743
 C      4   1   2     2.650720544103   129.59520586   191.68867420
 C      5   1   2     2.800674555230   116.60386069   357.68785316
 C      2   1   5     2.824575954566   106.94039068   339.55910211
 C      2   1   5     2.819210822752   107.23439182   219.20260422
 C      6   1   2     2.793908009512   116.78598216   358.97688549
 C      6   1   2     2.686345675224   130.11612627   186.09137646
 C     12   6   1     2.914950238060   114.47733928   258.48690388
 C      4   1   2     2.778246503356   112.94031639   352.87876467
 C      2   1   5     2.815801617077   105.69738900    99.34039420
 C      5   1   2     2.690623378606   130.30129276   182.86284624
 C     16   5   1     2.919288746239   115.56104660   252.99785966
 C      7   4   1     2.923500789367   115.22430325   238.06689049
 H      7   4   1     2.111436608573   111.95566365   114.39079396
 H     10   2   1     2.114107421698   110.93901652   163.70436124
 H     10   2   1     2.095579139995   106.90443279   281.52632466
 H     11   6   1     2.109033447695   111.57377631   143.60447374
 H     11   6   1     2.119914304901   110.29862468   260.61931817
 H     15   2   1     2.113673089614   110.65396947   164.94706929
 H     15   2   1     2.096221745435   107.22360725   282.88082998
 H      9   2   1     2.097548156644   106.74042539   280.67425371
 H      9   2   1     2.113247857026   110.77940484   163.12596099
 H      8   5   1     2.108317358422   112.13317535   144.85208827
 H      8   5   1     2.118411849550   109.98573932   261.99633991
 H      3   1   5     1.970189441652   109.74332724   103.57811559
 H      3   1   5     1.965147693904   113.39980002   221.39030249
 H      3   1   5     1.967973190137   115.25825843   343.69766187
 H     14   4   1     2.116399170096   112.09563598   269.34809646
 H     14   4   1     2.112068303946   110.82783466   151.31138259
 H      7   4   1     2.090610611106   109.12725219   358.84375355
 H     12   6   1     2.106964286209   111.45026845   135.31235992
 H     12   6   1     2.091669350836   110.26006480    20.32938722
 H     16   5   1     2.105718444068   110.83848742   129.57054606
 H     16   5   1     2.088392336131   108.96841869    14.96738722
 H     17  16   5     2.079833474590   110.31125239    58.81922886
 H     17  16   5     2.082946544808   111.22449752   179.33318790
 H     17  16   5     2.079764998801   111.54367923   299.33705466
 H     13  12   6     2.079831156447   111.12656910   300.12860844
 H     13  12   6     2.079545786503   109.99809842    59.17039115
 H     13  12   6     2.083094043398   111.44146218   179.94739956
 H     18   7   4     2.082650041481   110.98448483   179.50985381
 H     18   7   4     2.079824202156   111.56887406   299.34196257
 H     18   7   4     2.079043960166   110.14853464    59.05089040

---------------------
BASIS SET INFORMATION
---------------------
There are 4 groups of distinct atoms

 Group   1 Type Mo  : 22s15p9d1f contracted to 15s10p5d1f pattern {811111111111111/6111111111/51111/1}
 Group   2 Type N   : 11s6p2d1f contracted to 6s3p2d1f pattern {611111/411/11/1}
 Group   3 Type C   : 11s6p2d1f contracted to 6s3p2d1f pattern {611111/411/11/1}
 Group   4 Type H   : 5s1p contracted to 3s1p pattern {311/1}

Atom   0Mo   basis set group =>   1
Atom   1N    basis set group =>   2
Atom   2N    basis set group =>   2
Atom   3N    basis set group =>   2
Atom   4N    basis set group =>   2
Atom   5N    basis set group =>   2
Atom   6C    basis set group =>   3
Atom   7C    basis set group =>   3
Atom   8C    basis set group =>   3
Atom   9C    basis set group =>   3
Atom  10C    basis set group =>   3
Atom  11C    basis set group =>   3
Atom  12C    basis set group =>   3
Atom  13C    basis set group =>   3
Atom  14C    basis set group =>   3
Atom  15C    basis set group =>   3
Atom  16C    basis set group =>   3
Atom  17C    basis set group =>   3
Atom  18H    basis set group =>   4
Atom  19H    basis set group =>   4
Atom  20H    basis set group =>   4
Atom  21H    basis set group =>   4
Atom  22H    basis set group =>   4
Atom  23H    basis set group =>   4
Atom  24H    basis set group =>   4
Atom  25H    basis set group =>   4
Atom  26H    basis set group =>   4
Atom  27H    basis set group =>   4
Atom  28H    basis set group =>   4
Atom  29H    basis set group =>   4
Atom  30H    basis set group =>   4
Atom  31H    basis set group =>   4
Atom  32H    basis set group =>   4
Atom  33H    basis set group =>   4
Atom  34H    basis set group =>   4
Atom  35H    basis set group =>   4
Atom  36H    basis set group =>   4
Atom  37H    basis set group =>   4
Atom  38H    basis set group =>   4
Atom  39H    basis set group =>   4
Atom  40H    basis set group =>   4
Atom  41H    basis set group =>   4
Atom  42H    basis set group =>   4
Atom  43H    basis set group =>   4
Atom  44H    basis set group =>   4
Atom  45H    basis set group =>   4
Atom  46H    basis set group =>   4
Atom  47H    basis set group =>   4
---------------------------------
AUXILIARY/J BASIS SET INFORMATION
---------------------------------
There are 4 groups of distinct atoms

 Group   1 Type Mo  : 27s24p23d22f15g5h contracted to 27s24p23d22f15g5h pattern {111111111111111111111111111/111111111111111111111111/11111111111111111111111/1111111111111111111111/111111111111111/11111}
 Group   2 Type N   : 16s13p12d7f3g contracted to 16s13p12d7f3g pattern {1111111111111111/1111111111111/111111111111/1111111/111}
 Group   3 Type C   : 16s13p12d7f3g contracted to 16s13p12d7f3g pattern {1111111111111111/1111111111111/111111111111/1111111/111}
 Group   4 Type H   : 11s3p1d contracted to 11s3p1d pattern {11111111111/111/1}

Atom   0Mo   basis set group =>   1
Atom   1N    basis set group =>   2
Atom   2N    basis set group =>   2
Atom   3N    basis set group =>   2
Atom   4N    basis set group =>   2
Atom   5N    basis set group =>   2
Atom   6C    basis set group =>   3
Atom   7C    basis set group =>   3
Atom   8C    basis set group =>   3
Atom   9C    basis set group =>   3
Atom  10C    basis set group =>   3
Atom  11C    basis set group =>   3
Atom  12C    basis set group =>   3
Atom  13C    basis set group =>   3
Atom  14C    basis set group =>   3
Atom  15C    basis set group =>   3
Atom  16C    basis set group =>   3
Atom  17C    basis set group =>   3
Atom  18H    basis set group =>   4
Atom  19H    basis set group =>   4
Atom  20H    basis set group =>   4
Atom  21H    basis set group =>   4
Atom  22H    basis set group =>   4
Atom  23H    basis set group =>   4
Atom  24H    basis set group =>   4
Atom  25H    basis set group =>   4
Atom  26H    basis set group =>   4
Atom  27H    basis set group =>   4
Atom  28H    basis set group =>   4
Atom  29H    basis set group =>   4
Atom  30H    basis set group =>   4
Atom  31H    basis set group =>   4
Atom  32H    basis set group =>   4
Atom  33H    basis set group =>   4
Atom  34H    basis set group =>   4
Atom  35H    basis set group =>   4
Atom  36H    basis set group =>   4
Atom  37H    basis set group =>   4
Atom  38H    basis set group =>   4
Atom  39H    basis set group =>   4
Atom  40H    basis set group =>   4
Atom  41H    basis set group =>   4
Atom  42H    basis set group =>   4
Atom  43H    basis set group =>   4
Atom  44H    basis set group =>   4
Atom  45H    basis set group =>   4
Atom  46H    basis set group =>   4
Atom  47H    basis set group =>   4
---------------------------------
AUXILIARY/C BASIS SET INFORMATION
---------------------------------
There are 4 groups of distinct atoms

 Group   1 Type Mo  : 27s24p23d22f15g5h contracted to 27s24p23d22f15g5h pattern {111111111111111111111111111/111111111111111111111111/11111111111111111111111/1111111111111111111111/111111111111111/11111}
 Group   2 Type N   : 16s13p12d7f3g contracted to 16s13p12d7f3g pattern {1111111111111111/1111111111111/111111111111/1111111/111}
 Group   3 Type C   : 16s13p12d7f3g contracted to 16s13p12d7f3g pattern {1111111111111111/1111111111111/111111111111/1111111/111}
 Group   4 Type H   : 11s3p1d contracted to 11s3p1d pattern {11111111111/111/1}

Atom   0Mo   basis set group =>   1
Atom   1N    basis set group =>   2
Atom   2N    basis set group =>   2
Atom   3N    basis set group =>   2
Atom   4N    basis set group =>   2
Atom   5N    basis set group =>   2
Atom   6C    basis set group =>   3
Atom   7C    basis set group =>   3
Atom   8C    basis set group =>   3
Atom   9C    basis set group =>   3
Atom  10C    basis set group =>   3
Atom  11C    basis set group =>   3
Atom  12C    basis set group =>   3
Atom  13C    basis set group =>   3
Atom  14C    basis set group =>   3
Atom  15C    basis set group =>   3
Atom  16C    basis set group =>   3
Atom  17C    basis set group =>   3
Atom  18H    basis set group =>   4
Atom  19H    basis set group =>   4
Atom  20H    basis set group =>   4
Atom  21H    basis set group =>   4
Atom  22H    basis set group =>   4
Atom  23H    basis set group =>   4
Atom  24H    basis set group =>   4
Atom  25H    basis set group =>   4
Atom  26H    basis set group =>   4
Atom  27H    basis set group =>   4
Atom  28H    basis set group =>   4
Atom  29H    basis set group =>   4
Atom  30H    basis set group =>   4
Atom  31H    basis set group =>   4
Atom  32H    basis set group =>   4
Atom  33H    basis set group =>   4
Atom  34H    basis set group =>   4
Atom  35H    basis set group =>   4
Atom  36H    basis set group =>   4
Atom  37H    basis set group =>   4
Atom  38H    basis set group =>   4
Atom  39H    basis set group =>   4
Atom  40H    basis set group =>   4
Atom  41H    basis set group =>   4
Atom  42H    basis set group =>   4
Atom  43H    basis set group =>   4
Atom  44H    basis set group =>   4
Atom  45H    basis set group =>   4
Atom  46H    basis set group =>   4
Atom  47H    basis set group =>   4
----------------------------------
AUXILIARY/JK BASIS SET INFORMATION
----------------------------------
There are 4 groups of distinct atoms

 Group   1 Type Mo  : 27s24p23d22f15g5h contracted to 27s24p23d22f15g5h pattern {111111111111111111111111111/111111111111111111111111/11111111111111111111111/1111111111111111111111/111111111111111/11111}
 Group   2 Type N   : 16s13p12d7f3g contracted to 16s13p12d7f3g pattern {1111111111111111/1111111111111/111111111111/1111111/111}
 Group   3 Type C   : 16s13p12d7f3g contracted to 16s13p12d7f3g pattern {1111111111111111/1111111111111/111111111111/1111111/111}
 Group   4 Type H   : 11s3p1d contracted to 11s3p1d pattern {11111111111/111/1}

Atom   0Mo   basis set group =>   1
Atom   1N    basis set group =>   2
Atom   2N    basis set group =>   2
Atom   3N    basis set group =>   2
Atom   4N    basis set group =>   2
Atom   5N    basis set group =>   2
Atom   6C    basis set group =>   3
Atom   7C    basis set group =>   3
Atom   8C    basis set group =>   3
Atom   9C    basis set group =>   3
Atom  10C    basis set group =>   3
Atom  11C    basis set group =>   3
Atom  12C    basis set group =>   3
Atom  13C    basis set group =>   3
Atom  14C    basis set group =>   3
Atom  15C    basis set group =>   3
Atom  16C    basis set group =>   3
Atom  17C    basis set group =>   3
Atom  18H    basis set group =>   4
Atom  19H    basis set group =>   4
Atom  20H    basis set group =>   4
Atom  21H    basis set group =>   4
Atom  22H    basis set group =>   4
Atom  23H    basis set group =>   4
Atom  24H    basis set group =>   4
Atom  25H    basis set group =>   4
Atom  26H    basis set group =>   4
Atom  27H    basis set group =>   4
Atom  28H    basis set group =>   4
Atom  29H    basis set group =>   4
Atom  30H    basis set group =>   4
Atom  31H    basis set group =>   4
Atom  32H    basis set group =>   4
Atom  33H    basis set group =>   4
Atom  34H    basis set group =>   4
Atom  35H    basis set group =>   4
Atom  36H    basis set group =>   4
Atom  37H    basis set group =>   4
Atom  38H    basis set group =>   4
Atom  39H    basis set group =>   4
Atom  40H    basis set group =>   4
Atom  41H    basis set group =>   4
Atom  42H    basis set group =>   4
Atom  43H    basis set group =>   4
Atom  44H    basis set group =>   4
Atom  45H    basis set group =>   4
Atom  46H    basis set group =>   4
Atom  47H    basis set group =>   4
---------------------------------
AUXILIARY/X BASIS SET INFORMATION
---------------------------------
There are 4 groups of distinct atoms

 Group   1 Type Mo  : 27s24p23d22f15g5h contracted to 27s24p23d22f15g5h pattern {111111111111111111111111111/111111111111111111111111/11111111111111111111111/1111111111111111111111/111111111111111/11111}
 Group   2 Type N   : 16s13p12d7f3g contracted to 16s13p12d7f3g pattern {1111111111111111/1111111111111/111111111111/1111111/111}
 Group   3 Type C   : 16s13p12d7f3g contracted to 16s13p12d7f3g pattern {1111111111111111/1111111111111/111111111111/1111111/111}
 Group   4 Type H   : 11s3p1d contracted to 11s3p1d pattern {11111111111/111/1}

Atom   0Mo   basis set group =>   1
Atom   1N    basis set group =>   2
Atom   2N    basis set group =>   2
Atom   3N    basis set group =>   2
Atom   4N    basis set group =>   2
Atom   5N    basis set group =>   2
Atom   6C    basis set group =>   3
Atom   7C    basis set group =>   3
Atom   8C    basis set group =>   3
Atom   9C    basis set group =>   3
Atom  10C    basis set group =>   3
Atom  11C    basis set group =>   3
Atom  12C    basis set group =>   3
Atom  13C    basis set group =>   3
Atom  14C    basis set group =>   3
Atom  15C    basis set group =>   3
Atom  16C    basis set group =>   3
Atom  17C    basis set group =>   3
Atom  18H    basis set group =>   4
Atom  19H    basis set group =>   4
Atom  20H    basis set group =>   4
Atom  21H    basis set group =>   4
Atom  22H    basis set group =>   4
Atom  23H    basis set group =>   4
Atom  24H    basis set group =>   4
Atom  25H    basis set group =>   4
Atom  26H    basis set group =>   4
Atom  27H    basis set group =>   4
Atom  28H    basis set group =>   4
Atom  29H    basis set group =>   4
Atom  30H    basis set group =>   4
Atom  31H    basis set group =>   4
Atom  32H    basis set group =>   4
Atom  33H    basis set group =>   4
Atom  34H    basis set group =>   4
Atom  35H    basis set group =>   4
Atom  36H    basis set group =>   4
Atom  37H    basis set group =>   4
Atom  38H    basis set group =>   4
Atom  39H    basis set group =>   4
Atom  40H    basis set group =>   4
Atom  41H    basis set group =>   4
Atom  42H    basis set group =>   4
Atom  43H    basis set group =>   4
Atom  44H    basis set group =>   4
Atom  45H    basis set group =>   4
Atom  46H    basis set group =>   4
Atom  47H    basis set group =>   4


           ************************************************************
           *        Program running with 8 parallel MPI-processes     *
           *              working on a common directory               *
           ************************************************************
------------------------------------------------------------------------------
                             ORCA STARTUP CALCULATIONS
------------------------------------------------------------------------------
------------------------------------------------------------------------------
                   ___                                                        
                  /   \      - P O W E R E D   B Y -                         
                 /     \                                                     
                 |  |  |   _    _      __       _____    __    __             
                 |  |  |  | |  | |    /  \     |  _  \  |  |  /  |          
                  \  \/   | |  | |   /    \    | | | |  |  | /  /          
                 / \  \   | |__| |  /  /\  \   | |_| |  |  |/  /          
                |  |  |   |  __  | /  /__\  \  |    /   |      \           
                |  |  |   | |  | | |   __   |  |    \   |  |\   \          
                \     /   | |  | | |  |  |  |  | |\  \  |  | \   \       
                 \___/    |_|  |_| |__|  |__|  |_| \__\ |__|  \__/        
                                                                              
                      - O R C A' S   B I G   F R I E N D -                    
                                      &                                       
                       - I N T E G R A L  F E E D E R -                       
                                                                              
 v1 FN, 2020, v2 2021, v3 2022-2024                                           
------------------------------------------------------------------------------


----------------------
SHARK INTEGRAL PACKAGE
----------------------

Number of atoms                             ...     48
Number of basis functions                   ...    801
Number of shells                            ...    355
Maximum angular momentum                    ...      3
Integral batch strategy                     ... SHARK/LIBINT Hybrid
RI-J (if used) integral strategy            ... SPLIT-RIJ (Revised 2003 algorithm where possible)
Printlevel                                  ...      1
Contraction scheme used                     ... SEGMENTED contraction
Prescreening option                         ... SCHWARTZ
   Thresh                                   ... 1.000e-10
   Tcut                                     ... 1.000e-11
   Tpresel                                  ... 1.000e-11 
Coulomb Range Separation                    ... NOT USED
Exchange Range Separation                   ... NOT USED
Multipole approximations                    ... NOT USED
Finite Nucleus Model                        ... NOT USED
CABS basis                                  ... NOT available
Auxiliary Coulomb fitting basis             ... AVAILABLE
   # of basis functions in Aux-J            ...   4555
   # of shells in Aux-J                     ...   1433
   Maximum angular momentum in Aux-J        ...      5
Auxiliary J/K fitting basis                 ... AVAILABLE
   # of basis functions in Aux-JK           ...   4555
   # of shells in Aux-JK                    ...   1433
   Maximum angular momentum in Aux-JK       ...      5
Auxiliary Correlation fitting basis         ... AVAILABLE
   # of basis functions in Aux-C            ...   4555
   # of shells in Aux-C                     ...   1433
   Maximum angular momentum in Aux-C        ...      5
Auxiliary 'external' fitting basis          ... NOT available

Checking pre-screening integrals            ... done (  0.0 sec) Dimension = 355
Check shell pair data                       ... done (  0.0 sec)
Shell pair information
Shell pair cut-off parameter TPreSel        ...   1.0e-11
Total number of shell pairs                 ...     63190
Shell pairs after pre-screening             ...     45477
Total number of primitive shell pairs       ...    161528
Primitive shell pairs kept                  ...     80816
          la=0 lb=0:  14954 shell pairs
          la=1 lb=0:  13623 shell pairs
          la=1 lb=1:   3184 shell pairs
          la=2 lb=0:   5879 shell pairs
          la=2 lb=1:   2786 shell pairs
          la=2 lb=2:    643 shell pairs
          la=3 lb=0:   2543 shell pairs
          la=3 lb=1:   1196 shell pairs
          la=3 lb=2:    549 shell pairs
          la=3 lb=3:    120 shell pairs

Calculating one electron integrals          ... done (  0.1 sec)
Calculating RI/J V-Matrix + Cholesky decomp.... done (  1.6 sec)
Calculating RI/JK V-Matrix + Cholesky decomp... done (  1.5 sec)
Calculating RI/C V-Matrix + Cholesky decomp.... done (  1.5 sec)
Calculating Nuclear repulsion               ... done (  0.0 sec) ENN=   2397.213496299911 Eh

Diagonalization of the overlap matrix:
Smallest eigenvalue                        ... 8.057e-05
Time for diagonalization                   ...    0.121 sec
Threshold for overlap eigenvalues          ... 1.000e-07
Number of eigenvalues below threshold      ... 0
Time for construction of square roots      ...    0.110 sec
Total time needed                          ...    0.237 sec

-------------------
DFT GRID GENERATION
-------------------

General Integration Accuracy     IntAcc      ... 4.388
Radial Grid Type                 RadialGrid  ... OptM3 with GC (2021)
Angular Grid (max. ang.)         AngularGrid ... 4 (Lebedev-302)
Angular grid pruning method      GridPruning ... 4 (adaptive)
Weight generation scheme         WeightScheme... mBecke (2022)
Basis function cutoff            BFCut       ... 1.0000e-10
Integration weight cutoff        WCut        ... 1.0000e-14
Partially contracted basis set               ... off
Rotationally invariant grid construction     ... off
Angular grids for H and He will be reduced by one unit
Core-polarized basis detected: some atoms will have their core
                               angular grid increased.
Steep s-basis detected: some atoms will have their radial
                        grid points doubled.

Total number of grid points                  ...   215816
Total number of batches                      ...     3399
Average number of points per batch           ...       63
Average number of grid points per atom       ...     4496
Initializing property integral containers    ... done (  0.0 sec)

SHARK setup successfully completed in   7.3 seconds

Maximum memory used throughout the entire STARTUP-calculation: 128.1 MB


           ************************************************************
           *        Program running with 8 parallel MPI-processes     *
           *              working on a common directory               *
           ************************************************************
------------------------------------------------------------------------------
                          ORCA RELATIVISTIC HAMILTONIAN
------------------------------------------------------------------------------

Relativistic Method            ... DKH
Order of DKH treatment         ...   2
Treatment of potential         ... V(e,N)
Eps parameter for DKH          ...   0.00000000010000
Nucleus model                  ... Point Nucleus
Speed of light used            ... 137.03598950000000


            ************************************************
            *        DOUGLAS-KROLL-HESS HAMILTONIAN        *
            *   Programmed by FN according to literature   *
            *        procedures. Special thanks to         *
            *       B.A. Hess, M. Reiher and A. Wolf       *
            *     University Erlangen-Nuernberg/Bonn       *
            ************************************************

Uncontracting the basis (first version)        ... done
Number of contracted basis functions           ...  801
Number of uncontracted basis functions         ... 1141
Initializing the DKH file                      ... done
Calculating the relativistic integrals         ... done
Storing DKH matrices                           ... done
Computing the DKH transformation               ... done
Storing the transformation variables           ... done
Transforming V and pVp to p**2 space           ... done
First transformation of V and pVp              ... done
Second transformation of Veff                  ... done
Adding kinetic energy                          ... done
Back transformation of Veff to r-space         ... done
Recovering DKH matrices                        ... done
Recontracting the H-matrix (first version)     ... done
Computing the DKH correction to the H-matrix   ... done
Reading the original H-matrix                  ... done
Adding DKH correction to the H-matrix          ... done
Storing the new modified H-matrix              ... done

Maximum memory used throughout the entire REL-calculation: 219.7 MB


           ************************************************************
           *        Program running with 8 parallel MPI-processes     *
           *              working on a common directory               *
           ************************************************************
-------------------------------------------------------------------------------
                                 ORCA GUESS
                   Start orbitals & Density for SCF / CASSCF
-------------------------------------------------------------------------------

------------
SCF SETTINGS
------------
Hamiltonian:
 Ab initio Hamiltonian  Method          .... Hartree-Fock(GTOs)

Relativistic Settings:
 Scalar relativistic method             .... Douglas-Kroll-Hess
 Order of DKH procedure    Order        ....    2
 Mode of DKH-treatment                  .... V=V(e,N)
 Speed of light used       Velit        ....       137.035989
 Cutoff-constant           Eps          ....            1e-10 


General Settings:
 Integral files         IntName         .... mol
 Hartree-Fock type      HFTyp           .... CASSCF
 Total Charge           Charge          ....    0
 Multiplicity           Mult            ....    2
 Number of Electrons    NEL             ....  179
 Basis Dimension        Dim             ....  801
 Nuclear Repulsion      ENuc            ....   2397.2134962999 Eh

------------------------------
INITIAL GUESS: MODEL POTENTIAL
------------------------------
Loading DKH relativistic densities                 ... done
Calculating cut-offs                               ... done
Initializing the effective Hamiltonian             ... done
Setting up the integral package (SHARK)            ... done
Starting the Coulomb interaction                   ... done (   0.8 sec)
Making the grid                                    ... done (   0.5 sec)
Mapping shells                                     ... done
Starting the XC term evaluation                    ... done (   0.2 sec)
Transforming the Hamiltonian                       ... done (   0.1 sec)
Diagonalizing the Hamiltonian                      ... done (   0.1 sec)
Back transforming the eigenvectors                 ... done (   0.1 sec)
Now organizing SCF variables                       ... done
                      ------------------
                      INITIAL GUESS DONE (   1.8 sec)
                      ------------------
             **** ENERGY FILE WAS UPDATED (mol.en.tmp) ****
Finished Guess after   2.3 sec
Maximum memory used throughout the entire GUESS-calculation: 92.9 MB


           ************************************************************
           *        Program running with 8 parallel MPI-processes     *
           *              working on a common directory               *
           ************************************************************
-------------------------------------------------------------------------------
                              ORCA-CASSCF
-------------------------------------------------------------------------------

Building the CAS space              ... done (30 configurations for Mult=2)
Memory for address arrays  		      ... done
Make address arrays			      ... done
Memory for buffers 			      ... done
Setting up spin-function prototypes	      ... (MAXOPEN=3) 1 3 5 done
Trivial cases - DOMO's			      ... done (  0.0 MB)
Number of open shells			    ...  1
domo->virtual excitations			... done (  0.0 MB)
domo->somo excitations				... done (  0.0 MB)
somo->virtual excitations			... done (  0.0 MB)
somo->somo excitations				... done (  0.0 MB)
Number of open shells			    ...  3
domo->virtual excitations			... done (  0.0 MB)
domo->somo excitations				... done (  0.0 MB)
somo->virtual excitations			... done (  0.0 MB)
somo->somo excitations				... done (  0.0 MB)
Coupling container construction done

 CASSCF (estimated) memory needed     ... 36.3 MB
 NEVPT2 (estimated) memory needed     ... 104.7 MB


SYSTEM-SPECIFIC SETTINGS:
Number of active electrons          ...    3
Number of active orbitals           ...    5
Total number of electrons           ...  179
Total number of orbitals            ...  801
Total number aux. functions         ... 4555

Determined orbital ranges:
   Internal       0 -   87 (  88 orbitals)
   Active        88 -   92 (   5 orbitals)
   External      93 -  800 ( 708 orbitals)
Number of rotation parameters      ...  66284

CI-STEP:
CI strategy                         ... General CI
Number of multiplicity blocks       ...    1
BLOCK  0 WEIGHT=   1.0000
  Multiplicity                      ...    2
  #(Configurations)                 ...   30
  #(CSFs)                           ...   40
  #(Roots)                          ...    2
    ROOT=0 WEIGHT=    0.500000
    ROOT=1 WEIGHT=    0.500000

  PrintLevel                        ...    1
  N(GuessMat)                       ...      2048
  MaxDim(CI)                        ...        10
  MaxIter(CI)                       ...        64
  Energy Tolerance CI               ...  1.00e-08
  Residual Tolerance CI             ...  1.00e-08
  Shift(CI)                         ...  1.00e-04

INTEGRAL-TRANSFORMATION-STEP:
  Algorithm                         ... RI-MO

ORBITAL-IMPROVEMENT-STEP:
  Algorithm                         ... SuperCI(PT)
  Default Parametrization           ... CAYLEY
  Act-Act rotations                 ... depends on algorithm used

  Note: SuperCI(PT) will ignore FreezeIE, FreezeAct and FreezeGrad. In general Default settings are encouraged.
        In conjunction with ShiftUp, ShiftDn or GradScaling the performance of SuperCI(PT) is less optimal.  

  MaxRot                            ... 2.00e-01 
  Max. no of vectors (DIIS)         ... 15
  DThresh (cut-off) metric          ... 1.00e-06
  Switch step at gradient           ...  3.00e-02 
  Switch step at iteration          ...        50   
  Switch step to                    ... SuperCI(PT)    

SCF-SETTINGS:
  Incremental                       ... on
  RIJCOSX approximation             ... off
  RI-JK approximation               ... off
  AO integral handling              ... DIRECT
  Integral Neglect Thresh           ...  1.00e-10
  Primitive cutoff TCut             ...  1.00e-11
  Energy convergence tolerance      ...  1.00e-07
  Orbital gradient convergence      ...  1.00e-03
  Max. number of iterations         ...        75  

PT2-SETTINGS:
  A PT2 calculation will be performed on top of the CASSCF wave function (PT2 = SC-NEVPT2)   
 CI step strategy                   ... General CI
  D4C handling                      ... PS approximation (factorized) 
  CI truncation for D4C at          ...  1.00e-12
  CI truncation for D3  at          ...  1.00e-14
  Orbitals                          ... canonical for each state 
  Last  frozen  orbital             ... 30
  First deleted orbital             ... 801
  RI Step                           ... store IJV(array) (MC_ONDISK during integral transformation) 

FINAL ORBITALS:
  Active   Orbitals                 ... natural 
  Internal Orbitals                 ... canonical 
  External Orbitals                 ... canonical 

------------------
CAS-SCF ITERATIONS
------------------


MACRO-ITERATION   1: 
   --- Inactive Energy E0 = -4787.07611455 Eh
CI-ITERATION   0: 
 -4788.918799966   0.000000000004 (    0.00)
 -4788.916912220   0.000000000006
   CI-PROBLEM SOLVED
   DENSITIES MADE

                 <<<<<<<<<<<<<<<<<<INITIAL CI STATE CHECK>>>>>>>>>>>>>>>>>>

BLOCK  0 MULT= 2 NROOTS= 2 
ROOT   0:  E=   -4788.9187999655 Eh
      0.86974 [     4]: 12000
      0.10718 [     0]: 21000
      0.00725 [     5]: 11100
      0.00422 [     6]: 11010
      0.00263 [    14]: 02100
ROOT   1:  E=   -4788.9169122204 Eh  0.051 eV    414.3 cm**-1
      0.86781 [     0]: 21000
      0.10746 [     4]: 12000
      0.00723 [     5]: 11100
      0.00543 [     7]: 11001
      0.00297 [     6]: 11010

                 <<<<<<<<<<<<<<<<<<INITIAL CI STATE CHECK>>>>>>>>>>>>>>>>>>

   E(CAS)= -4788.917856093 Eh DE=    0.000000e+00
   --- Energy gap subspaces: Ext-Act = 0.087   Act-Int = -0.071
   N(occ)=  1.48486 1.48679 0.01366 0.00630 0.00839
   ||g|| =     9.941326e+00 Max(G)=   -4.124611e+00 Rot=797,0
   --- Orbital Update [SuperCI(PT)]
   --- Canonicalize Internal Space
   --- Canonicalize External Space
   --- SX_PT (Skipped TA=0 IT=0): ||X|| =      1.980524071 Max(X)(144,91) =     -0.480353387 
   --- SFit(Active Orbitals)

MACRO-ITERATION   2: 
   --- Inactive Energy E0 = -4787.84227045 Eh
CI-ITERATION   0: 
 -4789.538150693   0.000000000006 (    0.00)
 -4789.533138566   0.000000000005
   CI-PROBLEM SOLVED
   DENSITIES MADE
   E(CAS)= -4789.535644630 Eh DE=   -6.177885e-01
   --- Energy gap subspaces: Ext-Act = -0.296   Act-Int = 0.452
   N(occ)=  1.06016 1.15794 0.34276 0.14141 0.29773
   ||g|| =     3.528749e+00 Max(G)=    3.965768e-01 Rot=90,86
   --- Orbital Update [SuperCI(PT)]
   --- Canonicalize Internal Space
   --- Canonicalize External Space
   --- SX_PT (Skipped TA=0 IT=0): ||X|| =      0.908585736 Max(X)(90,87) =     -0.195769254 
   --- SFit(Active Orbitals)

MACRO-ITERATION   3: 
   --- Inactive Energy E0 = -4787.89741596 Eh
CI-ITERATION   0: 
 -4790.176967724   0.000000000003 (    0.00)
 -4790.176237930   0.000000000004
   CI-PROBLEM SOLVED
   DENSITIES MADE
   E(CAS)= -4790.176602827 Eh DE=   -6.409582e-01
   --- Energy gap subspaces: Ext-Act = -0.129   Act-Int = 0.056
   N(occ)=  1.48367 1.48305 0.01433 0.00959 0.00936
   ||g|| =     1.140915e+00 Max(G)=    1.337317e-01 Rot=91,31
   --- Orbital Update [SuperCI(PT)]
   --- Canonicalize Internal Space
   --- Canonicalize External Space
   --- SX_PT (Skipped TA=0 IT=0): ||X|| =      0.404477767 Max(X)(115,91) =     -0.078227228 
   --- SFit(Active Orbitals)

MACRO-ITERATION   4: 
   --- Inactive Energy E0 = -4788.00970695 Eh
CI-ITERATION   0: 
 -4790.226569567   0.000000000006 (    0.00)
 -4790.225027035   0.000000000009
   CI-PROBLEM SOLVED
   DENSITIES MADE
   E(CAS)= -4790.225798301 Eh DE=   -4.919547e-02
   --- Energy gap subspaces: Ext-Act = -0.177   Act-Int = 0.123
   N(occ)=  1.48106 1.48110 0.01647 0.00988 0.01148
   ||g|| =     2.542337e-01 Max(G)=    2.788924e-02 Rot=90,86
   --- Orbital Update [SuperCI(PT)]
   --- Canonicalize Internal Space
   --- Canonicalize External Space
   --- SX_PT (Skipped TA=0 IT=0): ||X|| =      0.198445081 Max(X)(119,91) =      0.045189074 
   --- SFit(Active Orbitals)

MACRO-ITERATION   5: 
   --- Inactive Energy E0 = -4787.88028348 Eh
CI-ITERATION   0: 
 -4790.228972434   0.000000000005 (    0.00)
 -4790.227711089   0.000000000006
   CI-PROBLEM SOLVED
   DENSITIES MADE
   E(CAS)= -4790.228341761 Eh DE=   -2.543460e-03
   --- Energy gap subspaces: Ext-Act = -0.166   Act-Int = 0.097
   N(occ)=  1.48051 1.47988 0.01659 0.01126 0.01177
   ||g|| =     3.477991e-01 Max(G)=   -4.160852e-02 Rot=746,28
   --- Orbital Update [SuperCI(PT)]
   --- Canonicalize Internal Space
   --- Canonicalize External Space
   --- SX_PT (Skipped TA=0 IT=0): ||X|| =      0.109443440 Max(X)(158,91) =     -0.021479506 
   --- SFit(Active Orbitals)

MACRO-ITERATION   6: 
   --- Inactive Energy E0 = -4787.95327520 Eh
CI-ITERATION   0: 
 -4790.233269088   0.000000000008 (    0.00)
 -4790.231774231   0.000000000009
   CI-PROBLEM SOLVED
   DENSITIES MADE
   E(CAS)= -4790.232521659 Eh DE=   -4.179898e-03
   --- Energy gap subspaces: Ext-Act = -0.205   Act-Int = 0.128
   N(occ)=  1.47973 1.48068 0.01687 0.01087 0.01185
   ||g|| =     7.736118e-02 Max(G)=   -6.637829e-03 Rot=97,31
   --- Orbital Update [SuperCI(PT)]
   --- Canonicalize Internal Space
   --- Canonicalize External Space
   --- SX_PT (Skipped TA=0 IT=0): ||X|| =      0.073706369 Max(X)(158,91) =     -0.019877062 
   --- SFit(Active Orbitals)

MACRO-ITERATION   7: 
   --- Inactive Energy E0 = -4787.94201397 Eh
CI-ITERATION   0: 
 -4790.233574550   0.000000000004 (    0.00)
 -4790.232197018   0.000000000004
   CI-PROBLEM SOLVED
   DENSITIES MADE
   E(CAS)= -4790.232885784 Eh DE=   -3.641245e-04
   --- Energy gap subspaces: Ext-Act = -0.212   Act-Int = 0.126
   N(occ)=  1.47969 1.48134 0.01656 0.01065 0.01176
   ||g|| =     2.861084e-02 Max(G)=    3.182955e-03 Rot=749,26
   --- Orbital Update [SuperCI(PT)]
   --- Canonicalize Internal Space
   --- Canonicalize External Space
   --- SX_PT (Skipped TA=0 IT=0): ||X|| =      0.075261287 Max(X)(158,91) =     -0.023951372 
   --- SFit(Active Orbitals)

MACRO-ITERATION   8: 
   --- Inactive Energy E0 = -4787.93859826 Eh
CI-ITERATION   0: 
 -4790.233453395   0.000000000008 (    0.00)
 -4790.232107942   0.000000000008
   CI-PROBLEM SOLVED
   DENSITIES MADE
   E(CAS)= -4790.232780668 Eh DE=    1.051154e-04
   --- Energy gap subspaces: Ext-Act = -0.202   Act-Int = 0.126
   N(occ)=  1.47973 1.48085 0.01677 0.01082 0.01183
   ||g|| =     3.684268e-02 Max(G)=    3.287645e-03 Rot=90,86
   --- Orbital Update [SuperCI(PT)]
   --- Canonicalize Internal Space
   --- Canonicalize External Space
   --- SX_PT (Skipped TA=0 IT=0): ||X|| =      0.071166566 Max(X)(158,91) =     -0.021974980 
   --- SFit(Active Orbitals)

MACRO-ITERATION   9: 
   --- Inactive Energy E0 = -4787.94365096 Eh
CI-ITERATION   0: 
 -4790.233239511   0.000000000003 (    0.00)
 -4790.231457053   0.000000000004
   CI-PROBLEM SOLVED
   DENSITIES MADE
   E(CAS)= -4790.232348282 Eh DE=    4.323860e-04
   --- Energy gap subspaces: Ext-Act = -0.167   Act-Int = 0.126
   N(occ)=  1.48046 1.47883 0.01689 0.01176 0.01205
   ||g|| =     5.961748e-02 Max(G)=   -4.671239e-03 Rot=92,33
   --- Orbital Update [SuperCI(PT)]
   --- Canonicalize Internal Space
   --- Canonicalize External Space
   --- SX_PT (Skipped TA=0 IT=0): ||X|| =      0.045993124 Max(X)(160,91) =      0.007458158 
   --- SFit(Active Orbitals)

MACRO-ITERATION  10: 
   --- Inactive Energy E0 = -4787.93675716 Eh
CI-ITERATION   0: 
 -4790.233371212   0.000000000006 (    0.00)
 -4790.231596568   0.000000000005
   CI-PROBLEM SOLVED
   DENSITIES MADE
   E(CAS)= -4790.232483890 Eh DE=   -1.356074e-04
   --- Energy gap subspaces: Ext-Act = -0.155   Act-Int = 0.125
   N(occ)=  1.48066 1.47874 0.01658 0.01190 0.01212
   ||g|| =     2.174387e-02 Max(G)=   -1.863072e-03 Rot=764,39
   --- Orbital Update [SuperCI(PT)]
   --- Canonicalize Internal Space
   --- Canonicalize External Space
   --- SX_PT (Skipped TA=0 IT=0): ||X|| =      0.035425571 Max(X)(153,90) =     -0.004910991 
   --- SFit(Active Orbitals)

MACRO-ITERATION  11: 
   --- Inactive Energy E0 = -4787.93700471 Eh
CI-ITERATION   0: 
 -4790.233530665   0.000000000003 (    0.00)
 -4790.231376869   0.000000000004
   CI-PROBLEM SOLVED
   DENSITIES MADE
   E(CAS)= -4790.232453767 Eh DE=    3.012256e-05
   --- Energy gap subspaces: Ext-Act = -0.147   Act-Int = 0.125
   N(occ)=  1.48065 1.47876 0.01637 0.01198 0.01224
   ||g|| =     3.589282e-02 Max(G)=   -3.041269e-03 Rot=92,33
   --- Orbital Update [SuperCI(PT)]
   --- Canonicalize Internal Space
   --- Canonicalize External Space
   --- SX_PT (Skipped TA=0 IT=0): ||X|| =      0.026692227 Max(X)(160,91) =      0.004786232 
   --- SFit(Active Orbitals)

MACRO-ITERATION  12: 
   --- Inactive Energy E0 = -4787.93466632 Eh
CI-ITERATION   0: 
 -4790.233567403   0.000000000005 (    0.00)
 -4790.231365788   0.000000000006
   CI-PROBLEM SOLVED
   DENSITIES MADE
   E(CAS)= -4790.232466595 Eh DE=   -1.282792e-05
   --- Energy gap subspaces: Ext-Act = -0.143   Act-Int = 0.124
   N(occ)=  1.48105 1.47899 0.01573 0.01196 0.01227
   ||g|| =     2.412980e-02 Max(G)=   -1.825941e-03 Rot=764,39
   --- Orbital Update [SuperCI(PT)]
   --- Canonicalize Internal Space
   --- Canonicalize External Space
   --- SX_PT (Skipped TA=0 IT=0): ||X|| =      0.018055977 Max(X)(160,91) =      0.003313003 
   --- SFit(Active Orbitals)

MACRO-ITERATION  13: 
   --- Inactive Energy E0 = -4787.93331846 Eh
CI-ITERATION   0: 
 -4790.233632536   0.000000000004 (    0.00)
 -4790.231332633   0.000000000005
   CI-PROBLEM SOLVED
   DENSITIES MADE
   E(CAS)= -4790.232482585 Eh DE=   -1.598955e-05
   --- Energy gap subspaces: Ext-Act = -0.147   Act-Int = 0.124
   N(occ)=  1.48136 1.47917 0.01530 0.01192 0.01225
   ||g|| =     6.761621e-03 Max(G)=   -8.563107e-04 Rot=90,86
   --- Orbital Update [SuperCI(PT)]
   --- Canonicalize Internal Space
   --- Canonicalize External Space
   --- SX_PT (Skipped TA=0 IT=0): ||X|| =      0.017350767 Max(X)(170,92) =     -0.003003123 
   --- SFit(Active Orbitals)

MACRO-ITERATION  14: 
   --- Inactive Energy E0 = -4787.93277370 Eh
CI-ITERATION   0: 
 -4790.233631478   0.000000000004 (    0.00)
 -4790.231327738   0.000000000004
   CI-PROBLEM SOLVED
   DENSITIES MADE
   E(CAS)= -4790.232479608 Eh DE=    2.977024e-06
   --- Energy gap subspaces: Ext-Act = -0.146   Act-Int = 0.124
   N(occ)=  1.48132 1.47914 0.01535 0.01194 0.01225
   ||g|| =     8.638428e-03 Max(G)=   -1.066192e-03 Rot=90,86
   --- Orbital Update [SuperCI(PT)]
   --- Canonicalize Internal Space
   --- Canonicalize External Space
   --- SX_PT (Skipped TA=0 IT=0): ||X|| =      0.017632592 Max(X)(170,92) =     -0.003014066 
   --- SFit(Active Orbitals)

MACRO-ITERATION  15: 
   --- Inactive Energy E0 = -4787.93287732 Eh
CI-ITERATION   0: 
 -4790.233623870   0.000000000006 (    0.00)
 -4790.231318752   0.000000000004
   CI-PROBLEM SOLVED
   DENSITIES MADE
   E(CAS)= -4790.232471311 Eh DE=    8.296756e-06
   --- Energy gap subspaces: Ext-Act = -0.145   Act-Int = 0.124
   N(occ)=  1.48121 1.47910 0.01545 0.01199 0.01224
   ||g|| =     8.426515e-03 Max(G)=    1.224359e-03 Rot=393,89
   --- Orbital Update [SuperCI(PT)]
   --- Canonicalize Internal Space
   --- Canonicalize External Space
   --- SX_PT (Skipped TA=0 IT=0): ||X|| =      0.018586104 Max(X)(170,92) =     -0.003030927 
Warning: badly conditioned DIIS matrix, 1 vectors out of 15 destroyed
   --- SFit(Active Orbitals)

MACRO-ITERATION  16: 
   --- Inactive Energy E0 = -4787.93248447 Eh
CI-ITERATION   0: 
 -4790.233623702   0.000000000004 (    0.00)
 -4790.231311665   0.000000000005
   CI-PROBLEM SOLVED
   DENSITIES MADE
   E(CAS)= -4790.232467684 Eh DE=    3.627117e-06
   --- Energy gap subspaces: Ext-Act = -0.145   Act-Int = 0.124
   N(occ)=  1.48118 1.47911 0.01548 0.01199 0.01224
   ||g|| =     1.027138e-02 Max(G)=   -1.326500e-03 Rot=747,89
   --- Orbital Update [SuperCI(PT)]
   --- Canonicalize Internal Space
   --- Canonicalize External Space
   --- SX_PT (Skipped TA=0 IT=0): ||X|| =      0.018012783 Max(X)(170,92) =     -0.002883618 
   --- SFit(Active Orbitals)

MACRO-ITERATION  17: 
   --- Inactive Energy E0 = -4787.93490511 Eh
CI-ITERATION   0: 
 -4790.233619454   0.000000000002 (    0.00)
 -4790.231286304   0.000000000003
   CI-PROBLEM SOLVED
   DENSITIES MADE
   E(CAS)= -4790.232452879 Eh DE=    1.480454e-05
   --- Energy gap subspaces: Ext-Act = -0.149   Act-Int = 0.124
   N(occ)=  1.48119 1.47931 0.01546 0.01192 0.01211
   ||g|| =     1.264719e-02 Max(G)=    1.013158e-03 Rot=771,13
   --- Orbital Update [SuperCI(PT)]
   --- Canonicalize Internal Space
   --- Canonicalize External Space
   --- SX_PT (Skipped TA=0 IT=0): ||X|| =      0.012638381 Max(X)(170,92) =     -0.001621856 
   --- SFit(Active Orbitals)

MACRO-ITERATION  18: 
   --- Inactive Energy E0 = -4787.93318613 Eh
CI-ITERATION   0: 
 -4790.233646899   0.000000000006 (    0.00)
 -4790.231273596   0.000000000002
   CI-PROBLEM SOLVED
   DENSITIES MADE
   E(CAS)= -4790.232460248 Eh DE=   -7.368203e-06
   --- Energy gap subspaces: Ext-Act = -0.152   Act-Int = 0.124
   N(occ)=  1.48129 1.47950 0.01540 0.01179 0.01203
   ||g|| =     6.812308e-03 Max(G)=   -1.042869e-03 Rot=91,34
   --- Orbital Update [SuperCI(PT)]
   --- Canonicalize Internal Space
   --- Canonicalize External Space
   --- SX_PT (Skipped TA=0 IT=0): ||X|| =      0.007922928 Max(X)(144,91) =     -0.001551930 
   --- SFit(Active Orbitals)

MACRO-ITERATION  19: 
   --- Inactive Energy E0 = -4787.93481716 Eh
CI-ITERATION   0: 
 -4790.233642296   0.000000000004 (    0.00)
 -4790.231283911   0.000000000006
   CI-PROBLEM SOLVED
   DENSITIES MADE
   E(CAS)= -4790.232463103 Eh DE=   -2.855945e-06
   --- Energy gap subspaces: Ext-Act = -0.154   Act-Int = 0.125
   N(occ)=  1.48137 1.47963 0.01532 0.01171 0.01197
   ||g|| =     6.257461e-03 Max(G)=    8.558521e-04 Rot=91,34
   --- Orbital Update [SuperCI(PT)]
   --- Canonicalize Internal Space
   --- Canonicalize External Space
   --- SX_PT (Skipped TA=0 IT=0): ||X|| =      0.005269281 Max(X)(144,91) =     -0.001126670 
   --- SFit(Active Orbitals)

MACRO-ITERATION  20: 
   --- Inactive Energy E0 = -4787.93404064 Eh
CI-ITERATION   0: 
 -4790.233658638   0.000000000003 (    0.00)
 -4790.231270172   0.000000000005
   CI-PROBLEM SOLVED
   DENSITIES MADE
   E(CAS)= -4790.232464405 Eh DE=   -1.301489e-06
   --- Energy gap subspaces: Ext-Act = -0.156   Act-Int = 0.124
   N(occ)=  1.48148 1.47981 0.01523 0.01161 0.01187
   ||g|| =     4.960533e-03 Max(G)=    4.159259e-04 Rot=92,34
   --- Orbital Update [SuperCI(PT)]
   --- Canonicalize Internal Space
   --- Canonicalize External Space
   --- SX_PT (Skipped TA=0 IT=0): ||X|| =      0.003046925 Max(X)(144,91) =     -0.000598208 
   --- SFit(Active Orbitals)

MACRO-ITERATION  21: 
   --- Inactive Energy E0 = -4787.93508858 Eh
CI-ITERATION   0: 
 -4790.233655510   0.000000000004 (    0.00)
 -4790.231275311   0.000000000006
   CI-PROBLEM SOLVED
   DENSITIES MADE
   E(CAS)= -4790.232465411 Eh DE=   -1.005847e-06
   --- Energy gap subspaces: Ext-Act = -0.158   Act-Int = 0.125
   N(occ)=  1.48155 1.47988 0.01516 0.01159 0.01183
   ||g|| =     3.308189e-03 Max(G)=    3.837933e-04 Rot=90,86
   --- Orbital Update [SuperCI(PT)]
   --- Canonicalize Internal Space
   --- Canonicalize External Space
   --- SX_PT (Skipped TA=0 IT=0): ||X|| =      0.001583446 Max(X)(144,92) =      0.000287309 
   --- SFit(Active Orbitals)

MACRO-ITERATION  22: 
   --- Inactive Energy E0 = -4787.93436020 Eh
CI-ITERATION   0: 
 -4790.233656427   0.000000000010 (    0.00)
 -4790.231275268   0.000000000010
   CI-PROBLEM SOLVED
   DENSITIES MADE
   E(CAS)= -4790.232465847 Eh DE=   -4.365738e-07
   --- Energy gap subspaces: Ext-Act = -0.159   Act-Int = 0.124
   N(occ)=  1.48157 1.47993 0.01513 0.01156 0.01181
   ||g|| =     1.813345e-03 Max(G)=   -2.126425e-04 Rot=747,30
   --- Orbital Update [SuperCI(PT)]
   --- Canonicalize Internal Space
   --- Canonicalize External Space
   --- SX_PT (Skipped TA=0 IT=0): ||X|| =      0.000888160 Max(X)(144,92) =      0.000130805 
   --- SFit(Active Orbitals)

MACRO-ITERATION  23: 
   --- Inactive Energy E0 = -4787.93476973 Eh
CI-ITERATION   0: 
 -4790.233656462   0.000000000006 (    0.00)
 -4790.231275561   0.000000000006
   CI-PROBLEM SOLVED
   DENSITIES MADE
   E(CAS)= -4790.232466011 Eh DE=   -1.639128e-07
   --- Energy gap subspaces: Ext-Act = -0.159   Act-Int = 0.124
   N(occ)=  1.48160 1.47995 0.01511 0.01155 0.01179
   ||g|| =     8.212829e-04 Max(G)=    8.367761e-05 Rot=747,30
                     ---- THE CAS-SCF GRADIENT HAS CONVERGED ----
                            --- FINALIZING ORBITALS ---
                    ---- DOING ONE FINAL ITERATION FOR PRINTING ----
   --- Canonicalize Internal Space
   --- Canonicalize External Space

MACRO-ITERATION  24: 
   --- Inactive Energy E0 = -4787.93476974 Eh
   --- All densities will be recomputed
CI-ITERATION   0: 
 -4790.233656467   0.000000000006 (    0.00)
 -4790.231275565   0.000000000012
   CI-PROBLEM SOLVED
   DENSITIES MADE
   E(CAS)= -4790.232466016 Eh DE=   -4.789399e-09
   --- Energy gap subspaces: Ext-Act = -0.338   Act-Int = 0.122
   N(occ)=  1.48284 1.48226 0.01515 0.01442 0.00533
   ||g|| =     8.213826e-04 Max(G)=    8.470368e-05 Rot=750,30
   --- Storing electron density for each root 
--------------
CASSCF RESULTS
--------------

Final CASSCF energy       : -4790.232466016 Eh -130348.8522 eV

----------------
ORBITAL ENERGIES
----------------

  NO   OCC          E(Eh)            E(eV) 
   0   2.0000    -738.722260    -20101.6547 
   1   2.0000    -107.174786     -2916.3742 
   2   2.0000     -95.630691     -2602.2434 
   3   2.0000     -95.630649     -2602.2422 
   4   2.0000     -95.626418     -2602.1271 
   5   2.0000     -19.482885      -530.1562 
   6   2.0000     -15.616116      -424.9361 
   7   2.0000     -15.589434      -424.2101 
   8   2.0000     -15.586495      -424.1301 
   9   2.0000     -15.586378      -424.1269 
  10   2.0000     -15.571355      -423.7181 
  11   2.0000     -15.499320      -421.7579 
  12   2.0000     -15.498306      -421.7304 
  13   2.0000     -15.489401      -421.4880 
  14   2.0000     -11.260163      -306.4046 
  15   2.0000     -11.259963      -306.3992 
  16   2.0000     -11.256940      -306.3169 
  17   2.0000     -11.243888      -305.9618 
  18   2.0000     -11.242527      -305.9247 
  19   2.0000     -11.238374      -305.8117 
  20   2.0000     -11.237874      -305.7981 
  21   2.0000     -11.235490      -305.7332 
  22   2.0000     -11.228142      -305.5333 
  23   2.0000     -11.206340      -304.9400 
  24   2.0000     -11.205378      -304.9138 
  25   2.0000     -11.197017      -304.6863 
  26   2.0000      -9.224525      -251.0121 
  27   2.0000      -9.224395      -251.0085 
  28   2.0000      -9.218903      -250.8591 
  29   2.0000      -9.218833      -250.8572 
  30   2.0000      -9.205097      -250.4834 
  31   2.0000      -2.957740       -80.4842 
  32   2.0000      -1.806387       -49.1543 
  33   2.0000      -1.804364       -49.0993 
  34   2.0000      -1.801158       -49.0120 
  35   2.0000      -1.241324       -33.7781 
  36   2.0000      -1.188541       -32.3418 
  37   2.0000      -1.153247       -31.3814 
  38   2.0000      -1.150852       -31.3163 
  39   2.0000      -1.144305       -31.1381 
  40   2.0000      -1.016809       -27.6688 
  41   2.0000      -1.014271       -27.5997 
  42   2.0000      -0.977113       -26.5886 
  43   2.0000      -0.942484       -25.6463 
  44   2.0000      -0.937784       -25.5184 
  45   2.0000      -0.901827       -24.5399 
  46   2.0000      -0.831910       -22.6374 
  47   2.0000      -0.830386       -22.5959 
  48   2.0000      -0.799682       -21.7605 
  49   2.0000      -0.767595       -20.8873 
  50   2.0000      -0.760301       -20.6888 
  51   2.0000      -0.738563       -20.0973 
  52   2.0000      -0.678037       -18.4503 
  53   2.0000      -0.673470       -18.3260 
  54   2.0000      -0.652812       -17.7639 
  55   2.0000      -0.650917       -17.7123 
  56   2.0000      -0.648937       -17.6585 
  57   2.0000      -0.611353       -16.6358 
  58   2.0000      -0.609254       -16.5787 
  59   2.0000      -0.604031       -16.4365 
  60   2.0000      -0.595205       -16.1964 
  61   2.0000      -0.594652       -16.1813 
  62   2.0000      -0.590977       -16.0813 
  63   2.0000      -0.570693       -15.5294 
  64   2.0000      -0.566731       -15.4215 
  65   2.0000      -0.538545       -14.6545 
  66   2.0000      -0.527717       -14.3599 
  67   2.0000      -0.524194       -14.2640 
  68   2.0000      -0.522697       -14.2233 
  69   2.0000      -0.518767       -14.1164 
  70   2.0000      -0.513633       -13.9767 
  71   2.0000      -0.513256       -13.9664 
  72   2.0000      -0.510808       -13.8998 
  73   2.0000      -0.497422       -13.5355 
  74   2.0000      -0.496854       -13.5201 
  75   2.0000      -0.486790       -13.2462 
  76   2.0000      -0.476604       -12.9691 
  77   2.0000      -0.473063       -12.8727 
  78   2.0000      -0.469798       -12.7839 
  79   2.0000      -0.455189       -12.3863 
  80   2.0000      -0.453407       -12.3378 
  81   2.0000      -0.428042       -11.6476 
  82   2.0000      -0.416128       -11.3234 
  83   2.0000      -0.405079       -11.0228 
  84   2.0000      -0.402353       -10.9486 
  85   2.0000      -0.322610        -8.7787 
  86   2.0000      -0.312937        -8.5155 
  87   2.0000      -0.283294        -7.7088 
  88   1.4828      -0.159225        -4.3327 
  89   1.4823      -0.160990        -4.3808 
  90   0.0151       0.257790         7.0148 
  91   0.0144       0.261959         7.1283 
  92   0.0053       0.443234        12.0610 
  93   0.0000       0.104929         2.8553 
  94   0.0000       0.137438         3.7399 
  95   0.0000       0.137657         3.7458 
  96   0.0000       0.142038         3.8651 
  97   0.0000       0.164775         4.4838 
  98   0.0000       0.167245         4.5510 
  99   0.0000       0.168611         4.5881 
 100   0.0000       0.170631         4.6431 
 101   0.0000       0.171008         4.6534 
 102   0.0000       0.194351         5.2886 
 103   0.0000       0.197845         5.3836 
 104   0.0000       0.199486         5.4283 
 105   0.0000       0.199944         5.4408 
 106   0.0000       0.206625         5.6225 
 107   0.0000       0.213320         5.8047 
 108   0.0000       0.214512         5.8372 
 109   0.0000       0.224765         6.1162 
 110   0.0000       0.226428         6.1614 
 111   0.0000       0.230896         6.2830 
 112   0.0000       0.231933         6.3112 
 113   0.0000       0.233114         6.3433 
 114   0.0000       0.251581         6.8459 
 115   0.0000       0.257428         7.0050 
 116   0.0000       0.259864         7.0713 
 117   0.0000       0.264296         7.1919 
 118   0.0000       0.275356         7.4928 
 119   0.0000       0.281074         7.6484 
 120   0.0000       0.285016         7.7557 
 121   0.0000       0.290176         7.8961 
 122   0.0000       0.291837         7.9413 
 123   0.0000       0.295856         8.0507 
[...]
Free electron               :    2.0023193    2.0023193    2.0023193
Gauge correction            :    0.0001619    0.0001576    0.0000857
g(OZ/SOC)                   :   -2.0023193   -2.0023193   -0.5829473

                            -----------------------------------------
g(tot)                      :    0.0000000    0.0000000    1.4288001 iso=    0.4762667
Delta-g                     :   -2.0023193   -2.0023193   -0.5735192 iso=   -1.5260526





------------------------------------------------------------------------------------------------------------------------
                               TRANSITION MAGNETIC DIPOLE CONTRIBUTIONS (Only L)  
            (theta is the angle between the gz component of the lowest and the nth Kramers pairs)
------------------------------------------------------------------------------------------------------------------------
 States       Energy      Energy     Osh.Str           M2            MX             MY             MZ            theta  
              (cm-1)       (eV)        (au)          (au**2)        (au)           (au)           (au)    
------------------------------------------------------------------------------------------------------------------------
 0  0         0.00       0.0000     0.00000000     0.12705523     0.01911397     0.00090107     0.35593409       0.00
 0  1         0.00       0.0000     0.00000000     0.00053663     0.00124220     0.00005856     0.02313183       0.00
 1  1         0.00       0.0000     0.00000000     0.12705523     0.01911397     0.00090107     0.35593409       0.00
------------------------------------------------------------------------------------------------------------------------



------------------------------------------------------------------------------------------------------------------------
                               TRANSITION MAGNETIC DIPOLE CONTRIBUTIONS (L+2S)  
            (theta is the angle between the gz component of the lowest and the nth Kramers pairs)
------------------------------------------------------------------------------------------------------------------------
 States       Energy      Energy     Osh.Str           M2            MX             MY             MZ            theta  
              (cm-1)       (eV)        (au)          (au**2)        (au)           (au)           (au)    
------------------------------------------------------------------------------------------------------------------------
 0  0         0.00       0.0000     0.00000000     2.92758477     0.14107582     0.01066523     1.70515942       0.00
 0  1         0.00       0.0000     0.00000000     0.71994271     0.58598079     0.59516481     0.14949273       0.00
 1  1         0.00       0.0000     0.00000000     2.92758477     0.14107582     0.01066523     1.70515942       0.00
------------------------------------------------------------------------------------------------------------------------


# The ground state multiplicity is smaller than 3. No D-tensor.

-----------------------------------------
Computing the QDPT Transition Densities ...
10% done
20% done
30% done
40% done
50% done
60% done
70% done
80% done
90% done
100% done
 done 
-----------------------------------------


Energy levels:  cm-1      eV      Boltzmann populations for T = 300.00  K 

   0 :         0.000     0.0000         4.86e-01 
   1 :         0.000     0.0000         4.86e-01 
   2 :       736.490     0.0913         1.42e-02 
   3 :       736.490     0.0913         1.42e-02 

--------------------------------------------------------------------------------------------------------
      SOC CORRECTED ABSORPTION SPECTRUM VIA TRANSITION ELECTRIC DIPOLE MOMENTS    
--------------------------------------------------------------------------------------------------------
      Transition         Energy     Energy  Wavelength fosc(D2)      D2       |DX|      |DY|      |DZ|  
                          (eV)      (cm-1)    (nm)  (*population)  (au**2)    (au)      (au)      (au)  
--------------------------------------------------------------------------------------------------------
  0-2.0A  ->  1-2.0A    0.000000       0.0     0.0   0.000000000   0.00000   0.00000   0.00000   0.00000
  1-2.0A  ->  2-2.0A    0.091313     736.5  13577.9   0.000000001   0.00000   0.00086   0.00031   0.00020
  1-2.0A  ->  3-2.0A    0.091313     736.5  13577.9   0.000001878   0.00173   0.03662   0.01582   0.01167
  0-2.0A  ->  2-2.0A    0.091313     736.5  13577.9   0.000001878   0.00173   0.03662   0.01582   0.01167
  0-2.0A  ->  3-2.0A    0.091313     736.5  13577.9   0.000000001   0.00000   0.00086   0.00031   0.00020

----------------------------------------------------------------------------------------------
      SOC CORRECTED CD SPECTRUM VIA TRANSITION ELECTRIC DIPOLE MOMENTS    
----------------------------------------------------------------------------------------------
      Transition         Energy     Energy  Wavelength    R       |MX|      |MY|      |MZ|  
                          (eV)      (cm-1)    (nm)    (1e40*cgs)  (au)      (au)      (au)  
----------------------------------------------------------------------------------------------
  0-2.0A  ->  1-2.0A    0.000000       0.0     0.0   -0.00000   0.00124   0.00006   0.02313
  1-2.0A  ->  2-2.0A    0.091313     736.5  13577.9    0.00061   0.00092   0.00004   0.01713
  1-2.0A  ->  3-2.0A    0.091313     736.5  13577.9    0.14335   0.01416   0.00067   0.26358
  0-2.0A  ->  2-2.0A    0.091313     736.5  13577.9    0.14335   0.01416   0.00067   0.26358
  0-2.0A  ->  3-2.0A    0.091313     736.5  13577.9    0.00061   0.00092   0.00004   0.01713
   --- Storing electron density after QD-SOC(NEVPT2) for each eigenvector

--------------
CASSCF TIMINGS
--------------

Total time                       ...      116.1 sec
Sum of individual times          ...      115.9 sec ( 99.8%)

Calculation of AO operators
Calculation of MO transformed quantities
Configuration interaction steps
   CI-setup phase                ...        2.1 sec (  1.8%)
Orbital improvement steps
Properties                       ...      113.7 sec ( 97.9%)
   SOC integral calculation      ...        0.0 sec (  0.0%)
   SSC RMEs (incl. integrals)    ...        0.0 sec (  0.0%)
   SOC RMEs                      ...        0.0 sec (  0.0%)

Maximum memory used throughout the entire CASSCF-calculation: 1585.5 MB

-------------------------   --------------------
FINAL SINGLE POINT ENERGY     -4793.784673495920
-------------------------   --------------------



           ************************************************************
           *        Program running with 8 parallel MPI-processes     *
           *              working on a common directory               *
           ************************************************************

------------------------------------------------------------------------------
                              ORCA PROPERTY CALCULATIONS
------------------------------------------------------------------------------

GBWName                                 ... mol.gbw
Number of atoms                         ...     48
Number of basis functions               ...    801
Max core memory                         ...   4000 MB

Electric properties:
Dipole moment                           ... YES(DKH)
Quadrupole moment                       ...  NO
Static polarizability (Dipole/Dipole)   ...  NO
Static polarizability (Dipole/Quad.)    ...  NO
Static polarizability (Quad./Quad.)     ...  NO
Static polarizability (Velocity)        ...  NO

Atomic electric properties:
Dipole moment                           ...  NO
Quadrupole moment                       ...  NO
Static polarizability                   ...  NO

Choice of electric origin               ... Center of mass
Position of electric origin             ...    -0.019722     0.013989     0.728381

General magnetic properties:
Magnetizability                         ...  NO

EPR properties:
g-Tensor (aka g-matrix)                 ...  NO
Zero-Field splitting spin-orbit         ...  NO
Zero-field splitting spin-spin          ...  NO
Hyperfine couplings                     ...  NO (   0 nuclei)
Quadrupole couplings                    ...  NO (   0 nuclei)
Contact density                         ...  NO (   0 nuclei)

NMR properties:
Chemical shifts                         ...  NO (   0 nuclei)
Spin-rotation constants                 ...  NO (   0 nuclei)
Spin-spin couplings                     ...  NO (   0 nuclei,    0 pairs)

Choice of magnetic origin               ... Center of nuclear charge
Position of magnetic origin             ...    -0.023556     0.017258     0.741359

Properties with geometric perturbations:
SCF Hessian                             ...  NO
IR spectrum                             ...  NO
VCD spectrum                            ...  NO
X-ray spectroscopy properties:
SCF XES/XAS/RIXS spectra                ...  NO

DKH transformation order                ... Second
Note: picture-change corrections are only included
      for the properties annotated with "YES(DKH)"!


-------------
DIPOLE MOMENT
-------------

Method             : CASSCF
Type of density    : Electron Density
Level              : Unrelaxed density
State              :  -1
Multiplicity       :  -1
Irrep              :   0
Energy             : -4790.2324660160829808 Eh
Relativity type    : 
Basis              : AO
                                X                 Y                 Z
Electronic contribution:      0.276399736      -0.549518174      -2.784101891
Nuclear contribution   :     -0.686217247       0.585183189       2.323080071
                        -----------------------------------------
Total Dipole Moment    :     -0.409817512       0.035665015      -0.461021819
                        -----------------------------------------
Magnitude (a.u.)       :      0.617870135
Magnitude (Debye)      :      1.570501074



--------------------
Rotational spectrum 
--------------------
 
Rotational constants in cm-1:             0.011582             0.011080             0.009673 
Rotational constants in MHz :           347.213527           332.180003           289.981014 

Dipole components along the rotational axes: 
x,y,z [a.u.] :     0.391471     0.198900    -0.434687 
x,y,z [Debye]:     0.995041     0.505564    -1.104886 

 

-------------
DIPOLE MOMENT
-------------

Method             : CASSCF
Type of density    : Electron Density
Level              : Unrelaxed density
State              :   0
Multiplicity       :   2
Irrep              :   0
Energy             :     0.0000000000000000 Eh
Relativity type    : 
Basis              : AO
                                X                 Y                 Z
Electronic contribution:      0.318872290      -0.530767232      -2.798105537
Nuclear contribution   :     -0.686217247       0.585183189       2.323080071
                        -----------------------------------------
Total Dipole Moment    :     -0.367344958       0.054415957      -0.475025465
                        -----------------------------------------
Magnitude (a.u.)       :      0.602953238
Magnitude (Debye)      :      1.532585334



--------------------
Rotational spectrum 
--------------------
 
Rotational constants in cm-1:             0.011582             0.011080             0.009673 
Rotational constants in MHz :           347.213527           332.180003           289.981014 

Dipole components along the rotational axes: 
x,y,z [a.u.] :     0.345773     0.202659    -0.450470 
x,y,z [Debye]:     0.878884     0.515118    -1.145004 

 

-------------
DIPOLE MOMENT
-------------

Method             : CASSCF
Type of density    : Electron Density
Level              : Unrelaxed density
State              :   1
Multiplicity       :   2
Irrep              :   0
Energy             :     0.0000000000000000 Eh
Relativity type    : 
Basis              : AO
                                X                 Y                 Z
Electronic contribution:      0.233927182      -0.568269115      -2.770098245
Nuclear contribution   :     -0.686217247       0.585183189       2.323080071
                        -----------------------------------------
Total Dipole Moment    :     -0.452290066       0.016914074      -0.447018173
                        -----------------------------------------
Magnitude (a.u.)       :      0.636142780
Magnitude (Debye)      :      1.616946446



--------------------
Rotational spectrum 
--------------------
 
Rotational constants in cm-1:             0.011582             0.011080             0.009673 
Rotational constants in MHz :           347.213527           332.180003           289.981014 

Dipole components along the rotational axes: 
x,y,z [a.u.] :     0.437170     0.195141    -0.418903 
x,y,z [Debye]:     1.111198     0.496010    -1.064767 

 

Dipole moment calculation done in   0.1 sec 

Maximum memory used throughout the entire PROP-calculation: 232.3 MB

--------------------------------
SUGGESTED CITATIONS FOR THIS RUN
--------------------------------

Below you find a list of papers that are relevant to this ORCA run
We neither can nor want to force you to cite these papers, but we appreciate if you do
You receive ORCA, which is the product of decades of hard work by many enthusiastic individuals, for free
The only thing we kindly ask in return is that you cite our papers,
We deeply appreciate it, if you show your appreciation for ORCA by not just citing the generic ORCA reference.

Please note that relegating all ORCA citations to the supporting information does *not* help us.
SI sections are not indexed - citations you put there will not count into any citation statistics
But we need these citations in order to attract the funding resources that allow us to do what we are doing

Therefore, if you are a happy ORCA user, please consider citing a few of the papers listed below in the main body of your paper

In addition to the list printed below, the program has created the file mol.bibtex that contains the list in bibtex format
You can import this file easily into all common literature databanks and citation aid programs


List of essential papers. We consider these as the minimum necessary citations

  1. Neese,F.
     Software update: the ORCA program system, version 5.0
     WIRES Comput. Molec. Sci., 2022 12(1)e1606
     doi.org/10.1002/wcms.1606

List of papers to cite with high priority. The work reported in these papers was absolutely
necessary for this run to complete.
Our perspective: the developers of density functionals and basis sets usually get cited in chemistry papers
Good! But without the algorithms to do something with them, the functionals or basis sets would not do anything.
Hence, in our opinion, the algorithm design and method developments papers are equally worthy of getting cited

  1. Ganyushin,D.; Neese,F.
     First-principles calculations of zero-field splitting parameters
     J. Chem. Phys., 2006 125(2)Art. No. 024103
     doi.org/10.1063/1.2213976
  2. Stoychev,G.L.; Auer,A.A.; Neese,F.
     Automatic Generation of Auxiliary Basis Sets
     J. Theo. Comp. Chem., 2017 13 554-562
     doi.org/10.1021/acs.jctc.6b01041
  3. Kollmar,C.; Sivalingam,K.; Helmich-Paris,B.; Angeli,C.; Neese,F.
     A perturbation-based super-CI approach for the orbital optimization of a CASSCF wave function
     J. Comput. Chem., 2019 40 1463-1470
     doi.org/10.1002/jcc.25801
  4. Lang,L.; Neese,F.
     Spin-dependent properties in the framework of the dynamic correlation dressed complete active space method
     J. Chem. Phys., 2019 150 
     doi.org/10.1063/1.5085203
  5. Kollmar,C.; Sivalingam,K.; Neese,F.
     An efficient implementation of the NEVPT2 and CASPT2 methods avoiding higher-order density matrices
     J. Chem. Phys., 2021 155 234104
     doi.org/10.1063/5.0072129
  6. Guo,Y.; Sivalingam,K.; Neese,F.
     Approximations of density matrices in N-electron valence state second-order perturbation theory (NEVPT2). I. Revisiting the NEVPT2 construction
     J. Chem. Phys., 2021 154 214111
  7. Neese,F.
     The SHARK Integral Generation and Digestion System
     J. Comp. Chem., 2022  1-16
     doi.org/10.1002/jcc.26942
  8. Ugandi,M.; Roemelt,M.
     A recursive formulation of one-electron coupling coefficients for spin-adapted configuration interaction calculations featuring many unpaired electrons
     Int. J. Quantum Chem., 2023 123 e27045
     doi.org/10.1002/qua.27045

List of suggested additional citations. These are papers that are important in the 'surrounding' of 
of this run, or papers that preceded the highly important papers. If you like your results we are grateful for a citation.

  1. Neese,F.
     The ORCA program system
     WIRES Comput. Molec. Sci., 2012 2(1)73-78
     doi.org/10.1002/wcms.81
  2. Ganyushin,D.; Neese,F.
     A fully variational spin-orbit coupled complete active space self-consistent field approach: Application to electron paramagnetic resonance g-tensors
     J. Chem. Phys., 2013 138 
     doi.org/10.1063/1.4793736
  3. Schapiro,I.; Sivalingam,K.; Neese,F.
     Assessment of n-Electron Valence State Perturbation Theory for Vertical Excitation Energies
     J. Theo. Comp. Chem., 2013 9 3567-3580
     doi.org/10.1021/ct400136y
  4. Neese,F.
     Software update: the ORCA program system, version 4.0
     WIRES Comput. Molec. Sci., 2018 8(1)1-6
     doi.org/10.1002/wcms.1327
  5. Neese,F.; Wennmohs,F.; Becker,U.; Riplinger,C.
     The ORCA quantum chemistry program package
     J. Chem. Phys., 2020 152 Art. No. L224108
     doi.org/10.1063/5.0004608
  6. Guo,Y.; Sivalingam,K.; Kollmar,C.; Neese,F.
     Approximations of density matrices in N-electron valence state second-order perturbation theory (NEVPT2). II. The full rank NEVPT2 (FR-NEVPT2) formulation
     J. Chem. Phys., 2021 154 214113

List of optional additional citations

  1. Neese,F.
     Approximate second-order SCF convergence for spin unrestricted wavefunctions
     Chem. Phys. Lett., 2000 325(1-3)93-98
     doi.org/10.1016/s0009-2614(00)00662-x

Timings for individual modules:

Sum of individual times          ...     5291.212 sec (=  88.187 min)
Startup calculation              ...        7.619 sec (=   0.127 min)   0.1 %
Relativistic integrals           ...       11.458 sec (=   0.191 min)   0.2 %
SCF iterations                   ...        2.469 sec (=   0.041 min)   0.0 %
CASSCF iterations                ...     3658.708 sec (=  60.978 min)  69.1 %
Property integrals               ...     1592.044 sec (=  26.534 min)  30.1 %
Property calculations            ...       18.913 sec (=   0.315 min)   0.4 %
                             ****ORCA TERMINATED NORMALLY****
TOTAL RUN TIME: 0 days 1 hours 28 minutes 11 seconds 602 msec
'mol.bibtex' -> '/csnfs/users/llang/calculations/ICE_SOC_SSC/Mo_HIPT_NH3/scalarrel/RI_NEVPT2/CAS_3_5/mol.bibtex'
'mol.densities' -> '/csnfs/users/llang/calculations/ICE_SOC_SSC/Mo_HIPT_NH3/scalarrel/RI_NEVPT2/CAS_3_5/mol.densities'
'mol.densitiesinfo' -> '/csnfs/users/llang/calculations/ICE_SOC_SSC/Mo_HIPT_NH3/scalarrel/RI_NEVPT2/CAS_3_5/mol.densitiesinfo'
'mol.err' -> '/csnfs/users/llang/calculations/ICE_SOC_SSC/Mo_HIPT_NH3/scalarrel/RI_NEVPT2/CAS_3_5/mol.err'
'mol.gbw' -> '/csnfs/users/llang/calculations/ICE_SOC_SSC/Mo_HIPT_NH3/scalarrel/RI_NEVPT2/CAS_3_5/mol.gbw'
'mol.job' -> '/csnfs/users/llang/calculations/ICE_SOC_SSC/Mo_HIPT_NH3/scalarrel/RI_NEVPT2/CAS_3_5/mol.job'
'mol.property.txt' -> '/csnfs/users/llang/calculations/ICE_SOC_SSC/Mo_HIPT_NH3/scalarrel/RI_NEVPT2/CAS_3_5/mol.property.txt'
cp: cannot stat 'mol.asa.inp': No such file or directory
cp: missing destination file operand after '/csnfs/users/llang/calculations/ICE_SOC_SSC/Mo_HIPT_NH3/scalarrel/RI_NEVPT2/CAS_3_5/'
Try 'cp --help' for more information.
cp: cannot stat 'mol.pc.tmp': No such file or directory
cp: cannot stat 'mol.QM2.pc.tmp': No such file or directory
