! Job execution by suborca V 10.01 !
Job started from head1.mpi-muelheim.mpg.de, running /hsnfs/software/orca/orca_stable_directory/orca_stable_20250507/orca on xe30th77.mpi-muelheim.mpg.de in /usr/scratch/llang/mol__18133280 (/bin/bash)
Job execution start: Wed May  7 10:33:43 CEST 2025
Shared library path: /hsnfs/software/openmpi-4.1.0/lib:/hsnfs/software/orca/orca_stable_directory/orca_stable_20250507:/hsnfs/software/themis/llvm-14.0.1/lib::/hsnfs/software/cfour-2.1/lib:/hsnfs/software/orca/orca_stable:/usr/users/openmpi-2.0.4/lib:/opt/intel/lib/intel64:/opt/intel/mkl/lib/intel64
SLURM Job ID is: 18133280
SLURM_JOB_NODELIST: xe30th77
Maxcore enforced by SLURM: 4096 MB per core
Expanded nodelist (1 nodes):
xe30th77

                                 *****************
                                 * O   R   C   A *
                                 *****************

                                            #,                                       
                                            ###                                      
                                            ####                                     
                                            #####                                    
                                            ######                                   
                                           ########,                                 
                                     ,,################,,,,,                         
                               ,,#################################,,                 
                          ,,##########################################,,             
                       ,#########################################, ''#####,          
                    ,#############################################,,   '####,        
                  ,##################################################,,,,####,       
                ,###########''''           ''''###############################       
              ,#####''   ,,,,##########,,,,          '''####'''          '####       
            ,##' ,,,,###########################,,,                        '##       
           ' ,,###''''                  '''############,,,                           
         ,,##''                                '''############,,,,        ,,,,,,###''
      ,#''                                            '''#######################'''  
     '                                                          ''''####''''         
             ,#######,   #######,   ,#######,      ##                                
            ,#'     '#,  ##    ##  ,#'     '#,    #''#        ,####,   ,####,        
            ##       ##  ##   ,#'  ##            #'  '#       #'       #'  '#        
            ##       ##  #######   ##           ,######,      #####,   #    #        
            '#,     ,#'  ##    ##  '#,     ,#' ,#      #,     #,   #   #,  ,#        
             '#######'   ##     ##  '#######'  #'      '#     '####' # '####'        



                #########################################################
                #                        -***-                          #
                #          Department of theory and spectroscopy        #
                #                                                       #
                #                      Frank Neese                      #
                #                                                       #
                #     Directorship, Architecture, Infrastructure        #
                #                    SHARK, DRIVERS                     #
                #        Core code/Algorithms in most modules           #
                #                                                       #
                #        Max Planck Institute fuer Kohlenforschung      #
                #                Kaiser Wilhelm Platz 1                 #
                #                 D-45470 Muelheim/Ruhr                 #
                #                      Germany                          #
                #                                                       #
                #                  All rights reserved                  #
                #                        -***-                          #
                #########################################################


                         Program Version 6.0.x  -   STABLE   -
                                (GIT: $2aa3202e$)
                ($2025-04-04 13:37:10 +0200 $)

                         (BUILD: $Wed 07 May 2025 01:14:39 AM CEST$)


 With contributions from (in alphabetic order):
[Max-Planck-Institut fuer Kohlenforschung]                               
  Daniel Aravena         : Magnetic Suceptibility                        
  Michael Atanasov       : Ab Initio Ligand Field Theory (pilot matlab implementation)
  Alexander A. Auer      : GIAO ZORA, VPT2 properties, NMR spectrum      
  Ute Becker             : All parallelization in ORCA, NUMFREQ, NUMCALC 
  Giovanni Bistoni       : ED, misc. LED, open-shell LED, HFLD           
  Martin Brehm           : Molecular dynamics                            
  Dmytro Bykov           : pre 5.0 version of the SCF Hessian            
  Marcos Casanova-Páez   : Triplet and SCS-CIS(D). UHF-(DLPNO)-IP/EA/STEOM-CCSD. UHF-CVS-IP/STEOM-CCSD   
  Vijay G. Chilkuri      : MRCI spin determinant printing, contributions to CSF-ICE 
  Pauline Colinet        : FMM embedding                                 
  Dipayan Datta          : RHF DLPNO-CCSD density                        
  Achintya Kumar Dutta   : EOM-CC, STEOM-CC                              
  Nicolas Foglia         : Exact transition moments, OPA infrastructure, MCD improvements    
  Dmitry Ganyushin       : Spin-Orbit,Spin-Spin,Magnetic field MRCI      
  Miquel Garcia-Rates    : C-PCM and meta-GGA Hessian, CCSD/C-PCM, Gaussian charge scheme 
  Tiago L. C. Gouveia    : GS-ROHF, GS-ROCIS                             
  Yang Guo               : DLPNO-NEVPT2, F12-NEVPT2, CIM, IAO-localization        
  Andreas Hansen         : Spin unrestricted coupled pair/coupled cluster methods 
  Ingolf Harden          : AUTO-CI MPn and infrastructure                
  Benjamin Helmich-Paris : MC-RPA, TRAH-(SCF,CASSCF), AVAS, COSX integrals, SCF dyn. polar. 
  Lee Huntington         : MR-EOM, pCC                                   
  Robert Izsak           : Overlap fitted RIJCOSX, COSX-SCS-MP3, EOM     
  Riya Kayal             : Wick's Theorem for AUTO-CI, AUTO-CI UHF-CCSDT 
  Emily Kempfer          : AUTO-CI, RHF CISDT and CCSDT                  
  Christian Kollmar      : KDIIS, OOCD, Brueckner-CCSD(T), CCSD density, CASPT2, CASPT2-K, improved NEVPT2 
  Axel Koslowski         : Symmetry handling                             
  Simone Kossmann        : meta-GGA functionals, TD-DFT gradient, OOMP2, (MP2 Hessian; deprecated post 5.0) 
  Lucas Lang             : DCDCAS                                        
  Marvin Lechner         : AUTO-CI (C++ implementation), FIC-MRCC        
  Spencer Leger          : CASSCF response                               
  Dagmar Lenk            : GEPOL surface, SMD, ORCA-2-JSON               
  Dimitrios Liakos       : Extrapolation schemes; Compound Job, initial MDCI parallelization 
  Dimitrios Manganas     : Further ROCIS development; embedding schemes. LFT, Crystal Embedding 
  Dimitrios Pantazis     : SARC Basis sets                               
  Anastasios Papadopoulos: AUTO-CI, single reference methods and gradients 
  Taras Petrenko         : pre 6.0 DFT Hessian and TD-DFT gradient, (ASA, deprecated), ECA, 1-Electron XAS/XES, NRVS 
  Peter Pinski           : DLPNO-MP2, DLPNO-MP2 Gradient                 
  Christoph Reimann      : Effective Core Potentials                     
  Marius Retegan         : Local ZFS, SOC                                
  Christoph Riplinger    : Optimizer, TS searches, QM/MM, DLPNO-CCSD(T), (RO)-DLPNO pert. Triples 
  Michael Roemelt        : Original ROCIS implementation                 
  Masaaki Saitow         : Open-shell DLPNO-CCSD energy and density      
  Barbara Sandhoefer     : DKH picture change effects                    
  Kantharuban Sivalingam : CASSCF convergence/infrastructure, NEVPT2 and variants, FIC-MRCI 
  Bernardo de Souza      : ESD, SOC TD-DFT                               
  Georgi L. Stoychev     : AutoAux, RI-MP2 NMR, DLPNO-MP2 response, X2C  
  Van Anh Tran           : RI-MP2 g-tensors                              
  Willem Van den Heuvel  : Paramagnetic NMR                              
  Zikuan Wang            : NOTCH, Electric field optimization            
  Frank Wennmohs         : Technical directorship and infrastructure     
  Hang Xu                : AUTO-CI-Response properties                   
                                                                         
[FACCTs GmbH]                                                            
  Markus Bursch, Miquel Garcia-Rates, Christoph Riplinger, Bernardo de Souza, Georgi L. Stoychev 
                                                                 
  APM, Basis sets (HGBS, AHGBS, def-TZVP (Ac-Lr), def2-XVPD (La-Lu)), CI-OPT, improved COSX, DLPNO-Multilevel,           
  DOCKER, DRACO, updates on ESD, GOAT, IRC, LR-CPCM, MBIS, meta-GGA TD-DFT gradient, ML-optimized integration grids, 
  MM, NACMEs, nearIR, NEB, NEB-TS, NL-DFT gradient (VV10), 2- and 3-layer-ONIOM, interface openCOSMO-RS, QMMM,   
  Crystal-QMMM, SF, symmetry and pop. for TD-DFT, r2SCAN hybrids, SOLVATOR                                   
                                                                         
[Other institutions]                                                     
  V. Asgeirsson          : NEB                                           
  Christoph Bannwarth    : sTDA-DFT, sTD-DFT, PBEh-3c, B97-3c, D3        
  Sebastian Ehlert       : rSCAN, r2SCAN, r2SCAN-3c, D4, dhf basis sets  
  Marvin Friede          : D4 for Fr, Ra, Ac-Lr                          
  Lars Goerigk           : TD-DFT with DH, B97 family of functionals     
  Stefan Grimme          : VdW corrections, initial TS optimization, DFT functionals, gCP, sTDA/sTD-DF 
  Waldemar Hujo          : DFT-NL                                        
  H. Jonsson             : NEB                                           
  Holger Kruse           : gCP                                           
  Marcel Mueller         : wB97X-3c, vDZP basis set                      
  Hagen Neugebauer       : wr2SCAN                                       
  Tobias Risthaus        : range-separated hybrid DFT                    
  Lukas Wittmann         : regularized MP2, r2SCAN double-hybrids, wr2SCAN        
                                                                         
We gratefully acknowledge several colleagues who have allowed us to      
interface, adapt or use parts of their codes:                            
  Ed Valeev, F. Pavosevic, A. Kumar             : LibInt (2-el integral package), F12 methods 
  Garnet Chan, S. Sharma, J. Yang, R. Olivares  : DMRG                   
  Ulf Ekstrom                                   : XCFun DFT Library      
  Mihaly Kallay                                 : mrcc  (arbitrary order and MRCC methods)
  Frank Weinhold                                : gennbo (NPA and NBO analysis)           
  Simon Mueller                                 : openCOSMO-RS                            
  Christopher J. Cramer and Donald G. Truhlar   : smd solvation model                     
  S Lehtola, MJT Oliveira, MAL Marques          : LibXC Library                           
  Liviu Ungur et al                             : ANISO software                          


 Your calculation uses the libint2 library for the computation of 2-el integrals
 For citations please refer to: http://libint.valeyev.net

 Your ORCA version has been built with support for libXC version: 6.2.2
 For citations please refer to: https://libxc.gitlab.io

 This ORCA versions uses:
   CBLAS   interface :  Fast vector & matrix operations
   LAPACKE interface :  Fast linear algebra routines
   SCALAPACK package :  Parallel linear algebra routines
   Shared memory     :  Shared parallel matrices
   BLAS/LAPACK       :  OpenBLAS 0.3.26  USE64BITINT DYNAMIC_ARCH NO_AFFINITY Haswell SINGLE_THREADED
        Core in use  :  Haswell
   Copyright (c) 2011-2014, The OpenBLAS Project


================================================================================

----- Orbital basis set information -----
Your calculation utilizes the basis: def2-TZVP
   F. Weigend and R. Ahlrichs, Phys. Chem. Chem. Phys. 7, 3297 (2005).

----- AuxC basis set information -----
Your calculation utilizes the auxiliary basis: def2-TZVP/C
  H-La, Hf-Rn : A. Hellweg, C. Hattig, S. Hofener and W. Klopper, Theor. Chem. Acc. 117, 587 (2007).
        Ce-Lu : J. Chmela and M. E. Harding, Mol. Phys. (2018).

================================================================================
                                        WARNINGS
                       Please study these warnings very carefully!
================================================================================


IMPORTANT NOTE: CASSCF must signal convergence for a subsequent CASPT2/NEVPT2! 
                Set maxiter=1 to run CASPT2/NEVPT2 with arbitrary orbitals.


================================================================================
                                       INPUT FILE
================================================================================
NAME = mol.inp
|  1> ! def2-TZVP def2-TZVP/C NEVPT2
|  2> 
|  3> %casscf
|  4>   nel 6
|  5>   norb 4
|  6>   mult 3,1
|  7>   nroots 5,4
|  8>   rel
|  9>     dosoc true
| 10>     dossc true
| 11>   end
| 12> end
| 13> 
| 14> *xyz 0 3
| 15> O 0.0 0.0 0.0
| 16> O 0.0 0.0 1.2058
| 17> * 
| 18> 
| 19>                          ****END OF INPUT****
================================================================================

                       ****************************
                       * Single Point Calculation *
                       ****************************

---------------------------------
CARTESIAN COORDINATES (ANGSTROEM)
---------------------------------
  O      0.000000    0.000000    0.000000
  O      0.000000    0.000000    1.205800

----------------------------
CARTESIAN COORDINATES (A.U.)
----------------------------
  NO LB      ZA    FRAG     MASS         X           Y           Z
   0 O     8.0000    0    15.999    0.000000    0.000000    0.000000
   1 O     8.0000    0    15.999    0.000000    0.000000    2.278632

--------------------------------
INTERNAL COORDINATES (ANGSTROEM)
--------------------------------
 O      0   0   0     0.000000000000     0.00000000     0.00000000
 O      1   0   0     1.205800000000     0.00000000     0.00000000

---------------------------
INTERNAL COORDINATES (A.U.)
---------------------------
 O      0   0   0     0.000000000000     0.00000000     0.00000000
 O      1   0   0     2.278631772282     0.00000000     0.00000000

---------------------
BASIS SET INFORMATION
---------------------
There are 1 groups of distinct atoms

 Group   1 Type O   : 11s6p2d1f contracted to 5s3p2d1f pattern {62111/411/11/1}

Atom   0O    basis set group =>   1
Atom   1O    basis set group =>   1
---------------------------------
AUXILIARY/C BASIS SET INFORMATION
---------------------------------
There are 1 groups of distinct atoms

 Group   1 Type O   : 8s6p5d3f1g contracted to 8s6p4d3f1g pattern {11111111/111111/2111/111/1}

Atom   0O    basis set group =>   1
Atom   1O    basis set group =>   1
------------------------------------------------------------------------------
                             ORCA STARTUP CALCULATIONS
------------------------------------------------------------------------------
------------------------------------------------------------------------------
                   ___                                                        
                  /   \      - P O W E R E D   B Y -                         
                 /     \                                                     
                 |  |  |   _    _      __       _____    __    __             
                 |  |  |  | |  | |    /  \     |  _  \  |  |  /  |          
                  \  \/   | |  | |   /    \    | | | |  |  | /  /          
                 / \  \   | |__| |  /  /\  \   | |_| |  |  |/  /          
                |  |  |   |  __  | /  /__\  \  |    /   |      \           
                |  |  |   | |  | | |   __   |  |    \   |  |\   \          
                \     /   | |  | | |  |  |  |  | |\  \  |  | \   \       
                 \___/    |_|  |_| |__|  |__|  |_| \__\ |__|  \__/        
                                                                              
                      - O R C A' S   B I G   F R I E N D -                    
                                      &                                       
                       - I N T E G R A L  F E E D E R -                       
                                                                              
 v1 FN, 2020, v2 2021, v3 2022-2024                                           
------------------------------------------------------------------------------


----------------------
SHARK INTEGRAL PACKAGE
----------------------

Number of atoms                             ...      2
Number of basis functions                   ...     62
Number of shells                            ...     22
Maximum angular momentum                    ...      3
Integral batch strategy                     ... SHARK/LIBINT Hybrid
RI-J (if used) integral strategy            ... SPLIT-RIJ (Revised 2003 algorithm where possible)
Printlevel                                  ...      1
Contraction scheme used                     ... SEGMENTED contraction
Prescreening option                         ... SCHWARTZ
   Thresh                                   ... 1.000e-10
   Tcut                                     ... 1.000e-11
   Tpresel                                  ... 1.000e-11 
Coulomb Range Separation                    ... NOT USED
Exchange Range Separation                   ... NOT USED
Multipole approximations                    ... NOT USED
Finite Nucleus Model                        ... NOT USED
CABS basis                                  ... NOT available
Auxiliary Coulomb fitting basis             ... NOT available
Auxiliary J/K fitting basis                 ... NOT available
Auxiliary Correlation fitting basis         ... AVAILABLE
   # of basis functions in Aux-C            ...    152
   # of shells in Aux-C                     ...     44
   Maximum angular momentum in Aux-C        ...      4
Auxiliary 'external' fitting basis          ... NOT available

Checking pre-screening integrals            ... done (  0.0 sec) Dimension = 22
Check shell pair data                       ... done (  0.0 sec)
Shell pair information
Shell pair cut-off parameter TPreSel        ...   1.0e-11
Total number of shell pairs                 ...       253
Shell pairs after pre-screening             ...       252
Total number of primitive shell pairs       ...       864
Primitive shell pairs kept                  ...       783
          la=0 lb=0:     54 shell pairs
          la=1 lb=0:     60 shell pairs
          la=1 lb=1:     21 shell pairs
          la=2 lb=0:     40 shell pairs
          la=2 lb=1:     24 shell pairs
          la=2 lb=2:     10 shell pairs
          la=3 lb=0:     20 shell pairs
          la=3 lb=1:     12 shell pairs
          la=3 lb=2:      8 shell pairs
          la=3 lb=3:      3 shell pairs

Calculating one electron integrals          ... done (  0.0 sec)
Calculating RI/C V-Matrix + Cholesky decomp.... done (  0.0 sec)
Calculating Nuclear repulsion               ... done (  0.0 sec) ENN=     28.087030462100 Eh

Diagonalization of the overlap matrix:
Smallest eigenvalue                        ... 1.850e-03
Time for diagonalization                   ...    0.006 sec
Threshold for overlap eigenvalues          ... 1.000e-07
Number of eigenvalues below threshold      ... 0
Time for construction of square roots      ...    0.000 sec
Total time needed                          ...    0.007 sec

-------------------
DFT GRID GENERATION
-------------------

General Integration Accuracy     IntAcc      ... 4.388
Radial Grid Type                 RadialGrid  ... OptM3 with GC (2021)
Angular Grid (max. ang.)         AngularGrid ... 4 (Lebedev-302)
Angular grid pruning method      GridPruning ... 4 (adaptive)
Weight generation scheme         WeightScheme... mBecke (2022)
Basis function cutoff            BFCut       ... 1.0000e-10
Integration weight cutoff        WCut        ... 1.0000e-14
Partially contracted basis set               ... off
Rotationally invariant grid construction     ... off
Angular grids for H and He will be reduced by one unit

Total number of grid points                  ...    12260
Total number of batches                      ...      192
Average number of points per batch           ...       63
Average number of grid points per atom       ...     6130
Initializing property integral containers    ... done (  0.0 sec)

SHARK setup successfully completed in   0.2 seconds

Maximum memory used throughout the entire STARTUP-calculation: 13.7 MB
-------------------------------------------------------------------------------
                                 ORCA GUESS
                   Start orbitals & Density for SCF / CASSCF
-------------------------------------------------------------------------------

------------
SCF SETTINGS
------------
Hamiltonian:
 Ab initio Hamiltonian  Method          .... Hartree-Fock(GTOs)


General Settings:
 Integral files         IntName         .... mol
 Hartree-Fock type      HFTyp           .... CASSCF
 Total Charge           Charge          ....    0
 Multiplicity           Mult            ....    3
 Number of Electrons    NEL             ....   16
 Basis Dimension        Dim             ....   62
 Nuclear Repulsion      ENuc            ....     28.0870304621 Eh

------------------------------
INITIAL GUESS: MODEL POTENTIAL
------------------------------
Loading Hartree-Fock densities                     ... done
Calculating cut-offs                               ... done
Initializing the effective Hamiltonian             ... done
Setting up the integral package (SHARK)            ... done
Starting the Coulomb interaction                   ... done (   0.0 sec)
Making the grid                                    ... done (   0.0 sec)
Mapping shells                                     ... done
Starting the XC term evaluation                    ... done (   0.0 sec)
Transforming the Hamiltonian                       ... done (   0.0 sec)
Diagonalizing the Hamiltonian                      ... done (   0.0 sec)
Back transforming the eigenvectors                 ... done (   0.0 sec)
Now organizing SCF variables                       ... done
                      ------------------
                      INITIAL GUESS DONE (   0.1 sec)
                      ------------------
             **** ENERGY FILE WAS UPDATED (mol.en.tmp) ****
Finished Guess after   0.1 sec
Maximum memory used throughout the entire GUESS-calculation: 7.6 MB
-------------------------------------------------------------------------------
                              ORCA-CASSCF
-------------------------------------------------------------------------------

Building the CAS space              ... done (6 configurations for Mult=3)
Building the CAS space              ... done (10 configurations for Mult=1)
Memory for address arrays  		      ... done
Make address arrays			      ... done
Memory for buffers 			      ... done
Setting up spin-function prototypes	      ... (MAXOPEN=2) 2 4 done
Trivial cases - DOMO's			      ... done (  0.0 MB)
Number of open shells			    ...  2
domo->virtual excitations			... done (  0.0 MB)
domo->somo excitations				... done (  0.0 MB)
somo->virtual excitations			... done (  0.0 MB)
somo->somo excitations				... done (  0.0 MB)
Coupling container construction done
Memory for address arrays  		      ... done
Make address arrays			      ... done
Memory for buffers 			      ... done
Setting up spin-function prototypes	      ... (MAXOPEN=2) 0 2 4 done
Trivial cases - DOMO's			      ... done (  0.0 MB)
Number of open shells			    ...  0
domo->virtual excitations			... done (  0.0 MB)
domo->somo excitations				... done (  0.0 MB)
somo->virtual excitations			... done (  0.0 MB)
somo->somo excitations				... done (  0.0 MB)
Number of open shells			    ...  2
domo->virtual excitations			... done (  0.0 MB)
domo->somo excitations				... done (  0.0 MB)
somo->virtual excitations			... done (  0.0 MB)
somo->somo excitations				... done (  0.0 MB)
Coupling container construction done

 CASSCF (estimated) memory needed     ... 0.7 MB
 NEVPT2 (estimated) memory needed     ... 1.2 MB


SYSTEM-SPECIFIC SETTINGS:
Number of active electrons          ...    6
Number of active orbitals           ...    4
Total number of electrons           ...   16
Total number of orbitals            ...   62

Determined orbital ranges:
   Internal       0 -    4 (   5 orbitals)
   Active         5 -    8 (   4 orbitals)
   External       9 -   61 (  53 orbitals)
Number of rotation parameters      ...    497

CI-STEP:
CI strategy                         ... General CI
Number of multiplicity blocks       ...    2
BLOCK  0 WEIGHT=   0.5000
  Multiplicity                      ...    3
  #(Configurations)                 ...    6
  #(CSFs)                           ...    6
  #(Roots)                          ...    5
    ROOT=0 WEIGHT=    0.100000
    ROOT=1 WEIGHT=    0.100000
    ROOT=2 WEIGHT=    0.100000
    ROOT=3 WEIGHT=    0.100000
    ROOT=4 WEIGHT=    0.100000

BLOCK  1 WEIGHT=   0.5000
  Multiplicity                      ...    1
  #(Configurations)                 ...   10
  #(CSFs)                           ...   10
  #(Roots)                          ...    4
    ROOT=0 WEIGHT=    0.125000
    ROOT=1 WEIGHT=    0.125000
    ROOT=2 WEIGHT=    0.125000
    ROOT=3 WEIGHT=    0.125000

  PrintLevel                        ...    1
  N(GuessMat)                       ...      2048
  MaxDim(CI)                        ...        10
  MaxIter(CI)                       ...        64
  Energy Tolerance CI               ...  1.00e-08
  Residual Tolerance CI             ...  1.00e-08
  Shift(CI)                         ...  1.00e-04

INTEGRAL-TRANSFORMATION-STEP:
  Algorithm                         ... EXACT

ORBITAL-IMPROVEMENT-STEP:
  Algorithm                         ... SuperCI(PT)
  Default Parametrization           ... CAYLEY
  Act-Act rotations                 ... depends on algorithm used

  Note: SuperCI(PT) will ignore FreezeIE, FreezeAct and FreezeGrad. In general Default settings are encouraged.
        In conjunction with ShiftUp, ShiftDn or GradScaling the performance of SuperCI(PT) is less optimal.  

  MaxRot                            ... 2.00e-01 
  Max. no of vectors (DIIS)         ... 15
  DThresh (cut-off) metric          ... 1.00e-06
  Switch step at gradient           ...  3.00e-02 
  Switch step at iteration          ...        50   
  Switch step to                    ... SuperCI(PT)    

SCF-SETTINGS:
  Incremental                       ... on
  RIJCOSX approximation             ... off
  RI-JK approximation               ... off
  AO integral handling              ... DIRECT
  Integral Neglect Thresh           ...  1.00e-10
  Primitive cutoff TCut             ...  1.00e-11
  Energy convergence tolerance      ...  1.00e-07
  Orbital gradient convergence      ...  1.00e-03
  Max. number of iterations         ...        75  

PT2-SETTINGS:
  A PT2 calculation will be performed on top of the CASSCF wave function (PT2 = SC-NEVPT2)   
 CI step strategy                   ... General CI
  D4C handling                      ... PS approximation (factorized) 
  CI truncation for D4C at          ...  1.00e-12
  CI truncation for D3  at          ...  1.00e-14
  Orbitals                          ... canonical for each state 
  Last  frozen  orbital             ... 1
  First deleted orbital             ... 62

FINAL ORBITALS:
  Active   Orbitals                 ... natural 
  Internal Orbitals                 ... canonical 
  External Orbitals                 ... canonical 

------------------
CAS-SCF ITERATIONS
------------------


MACRO-ITERATION   1: 
   --- Inactive Energy E0 = -137.62951901 Eh
CI-ITERATION   0: 
  -149.672579453   0.000000000000 (    0.00)
  -149.478103910   0.000000000000
  -149.478103737   0.000000000000
  -149.472834384   0.000000000000
  -149.160595572   0.000000000000
   CI-PROBLEM SOLVED
   DENSITIES MADE
CI-ITERATION   0: 
  -149.645068490   0.000000000000 (    0.00)
  -149.645068199   0.000000000000
  -149.620332342   0.000000000000
  -149.483373263   0.000000000000
   CI-PROBLEM SOLVED
   DENSITIES MADE

                 <<<<<<<<<<<<<<<<<<INITIAL CI STATE CHECK>>>>>>>>>>>>>>>>>>

BLOCK  0 MULT= 3 NROOTS= 5 
ROOT   0:  E=    -149.6725794532 Eh
      0.94530 [     5]: 2211
      0.05470 [     0]: 1122
ROOT   1:  E=    -149.4781039101 Eh  5.292 eV  42682.4 cm**-1
      0.49669 [     4]: 2121
      0.49669 [     1]: 1212
      0.00331 [     3]: 2112
      0.00331 [     2]: 1221
ROOT   2:  E=    -149.4781037370 Eh  5.292 eV  42682.5 cm**-1
      0.49669 [     2]: 1221
      0.49669 [     3]: 2112
      0.00331 [     4]: 2121
      0.00331 [     1]: 1212
ROOT   3:  E=    -149.4728343838 Eh  5.435 eV  43839.0 cm**-1
      0.49574 [     1]: 1212
      0.49574 [     4]: 2121
      0.00426 [     3]: 2112
      0.00426 [     2]: 1221
ROOT   4:  E=    -149.1605955718 Eh 13.932 eV 112367.5 cm**-1
      0.49574 [     3]: 2112
      0.49574 [     2]: 1221
      0.00426 [     1]: 1212
      0.00426 [     4]: 2121

BLOCK  1 MULT= 1 NROOTS= 4 
ROOT   0:  E=    -149.6450684899 Eh
      0.44761 [     9]: 2220
      0.44761 [     7]: 2202
      0.03856 [     4]: 2022
      0.03856 [     0]: 0222
      0.02764 [     8]: 2211
ROOT   1:  E=    -149.6450681990 Eh  0.000 eV      0.1 cm**-1
      0.89522 [     8]: 2211
      0.07712 [     1]: 1122
      0.01382 [     9]: 2220
      0.01382 [     7]: 2202
ROOT   2:  E=    -149.6203323418 Eh  0.673 eV   5429.0 cm**-1
      0.44983 [     7]: 2202
      0.44983 [     9]: 2220
      0.05017 [     0]: 0222
      0.05017 [     4]: 2022
ROOT   3:  E=    -149.4833732633 Eh  4.400 eV  35488.0 cm**-1
      0.49574 [     3]: 1221
      0.49574 [     5]: 2112
      0.00426 [     6]: 2121
      0.00426 [     2]: 1212

                 <<<<<<<<<<<<<<<<<<INITIAL CI STATE CHECK>>>>>>>>>>>>>>>>>>

   E(CAS)=  -149.525451992 Eh DE=    0.000000e+00
   --- Energy gap subspaces: Ext-Act = 0.663   Act-Int = 0.069
   N(occ)=  1.70020 1.70020 1.29980 1.29980
   ||g|| =     1.539528e+00 Max(G)=    6.844714e-01 Rot=60,0
   --- Orbital Update [SuperCI(PT)]
   --- Canonicalize Internal Space
   --- Canonicalize External Space
   --- SX_PT (Skipped TA=0 IT=0): ||X|| =      0.060327747 Max(X)(34,4) =      0.024680882 
   --- SFit(Active Orbitals)

MACRO-ITERATION   2: 
   --- Inactive Energy E0 = -137.65189511 Eh
CI-ITERATION   0: 
  -149.696274891   0.000000000000 (    0.00)
  -149.506150085   0.000000000000
  -149.506150063   0.000000000000
  -149.500561724   0.000000000000
  -149.195089046   0.000000000000
   CI-PROBLEM SOLVED
   DENSITIES MADE
CI-ITERATION   0: 
  -149.668393045   0.000000000000 (    0.00)
  -149.668392976   0.000000000000
  -149.643330710   0.000000000000
  -149.511738425   0.000000000000
   CI-PROBLEM SOLVED
   DENSITIES MADE
   E(CAS)=  -149.551904475 Eh DE=   -2.645248e-02
   --- Energy gap subspaces: Ext-Act = 0.670   Act-Int = 0.080
   N(occ)=  1.69982 1.69982 1.30018 1.30018
   ||g|| =     1.185474e-01 Max(G)=    3.942282e-02 Rot=34,0
   --- Orbital Update [SuperCI(PT)]
   --- Canonicalize Internal Space
   --- Canonicalize External Space
   --- SX_PT (Skipped TA=0 IT=0): ||X|| =      0.009376644 Max(X)(15,7) =     -0.003121676 
   --- SFit(Active Orbitals)

MACRO-ITERATION   3: 
   --- Inactive Energy E0 = -137.65917264 Eh
CI-ITERATION   0: 
  -149.696879679   0.000000000000 (    0.00)
  -149.506611749   0.000000000000
  -149.506611747   0.000000000000
  -149.501065319   0.000000000000
  -149.193893832   0.000000000000
   CI-PROBLEM SOLVED
   DENSITIES MADE
CI-ITERATION   0: 
  -149.668998090   0.000000000000 (    0.00)
  -149.668998079   0.000000000000
  -149.643953825   0.000000000000
  -149.512158177   0.000000000000
   CI-PROBLEM SOLVED
   DENSITIES MADE
   E(CAS)=  -149.552269754 Eh DE=   -3.652786e-04
   --- Energy gap subspaces: Ext-Act = 0.670   Act-Int = 0.078
   N(occ)=  1.69963 1.69963 1.30037 1.30037
   ||g|| =     1.499245e-02 Max(G)=    8.398960e-03 Rot=34,4
   --- Orbital Update [SuperCI(PT)]
   --- Canonicalize Internal Space
   --- Canonicalize External Space
   --- SX_PT (Skipped TA=0 IT=0): ||X|| =      0.001296337 Max(X)(34,4) =      0.000546555 
   --- SFit(Active Orbitals)

MACRO-ITERATION   4: 
   --- Inactive Energy E0 = -137.65878644 Eh
CI-ITERATION   0: 
  -149.696842699   0.000000000000 (    0.00)
  -149.506665285   0.000000000000
  -149.506665284   0.000000000000
  -149.501118159   0.000000000000
  -149.193940316   0.000000000000
   CI-PROBLEM SOLVED
   DENSITIES MADE
CI-ITERATION   0: 
  -149.668959781   0.000000000000 (    0.00)
  -149.668959781   0.000000000000
  -149.643916282   0.000000000000
  -149.512212410   0.000000000000
   CI-PROBLEM SOLVED
   DENSITIES MADE
   E(CAS)=  -149.552279206 Eh DE=   -9.452119e-06
   --- Energy gap subspaces: Ext-Act = 0.670   Act-Int = 0.078
   N(occ)=  1.69961 1.69961 1.30039 1.30039
   ||g|| =     1.464425e-03 Max(G)=    6.750833e-04 Rot=9,3
   --- Orbital Update [SuperCI(PT)]
   --- Canonicalize Internal Space
   --- Canonicalize External Space
   --- SX_PT (Skipped TA=0 IT=0): ||X|| =      0.000206084 Max(X)(9,3) =     -0.000087898 
   --- SFit(Active Orbitals)

MACRO-ITERATION   5: 
   --- Inactive Energy E0 = -137.65895058 Eh
CI-ITERATION   0: 
  -149.696839711   0.000000000000 (    0.00)
  -149.506677049   0.000000000000
  -149.506677049   0.000000000000
  -149.501130815   0.000000000000
  -149.193903077   0.000000000000
   CI-PROBLEM SOLVED
   DENSITIES MADE
CI-ITERATION   0: 
  -149.668957301   0.000000000000 (    0.00)
  -149.668957300   0.000000000000
  -149.643914748   0.000000000000
  -149.512223284   0.000000000000
   CI-PROBLEM SOLVED
   DENSITIES MADE
   E(CAS)=  -149.552279349 Eh DE=   -1.430335e-07
   --- Energy gap subspaces: Ext-Act = 0.670   Act-Int = 0.078
   N(occ)=  1.69960 1.69960 1.30040 1.30040
   ||g|| =     4.431443e-04 Max(G)=   -1.690436e-04 Rot=14,4
                     ---- THE CAS-SCF GRADIENT HAS CONVERGED ----
                            --- FINALIZING ORBITALS ---
                    ---- DOING ONE FINAL ITERATION FOR PRINTING ----
   --- Canonicalize Internal Space
   --- Canonicalize External Space

MACRO-ITERATION   6: 
   --- Inactive Energy E0 = -137.65895058 Eh
   --- All densities will be recomputed
CI-ITERATION   0: 
  -149.696839711   0.000000000000 (    0.00)
  -149.506677049   0.000000000000
  -149.506677049   0.000000000000
  -149.501130815   0.000000000000
  -149.193903077   0.000000000000
   CI-PROBLEM SOLVED
   DENSITIES MADE
CI-ITERATION   0: 
  -149.668957300   0.000000000000 (    0.00)
  -149.668957300   0.000000000000
  -149.643914748   0.000000000000
  -149.512223284   0.000000000000
   CI-PROBLEM SOLVED
   DENSITIES MADE
   E(CAS)=  -149.552279349 Eh DE=    1.367084e-11
   --- Energy gap subspaces: Ext-Act = 0.624   Act-Int = 0.078
   N(occ)=  1.69960 1.69960 1.30040 1.30040
   ||g|| =     4.431434e-04 Max(G)=    1.724997e-04 Rot=16,3
--------------
CASSCF RESULTS
--------------

Final CASSCF energy       : -149.552279349 Eh   -4069.5244 eV

----------------
ORBITAL ENERGIES
----------------

  NO   OCC          E(Eh)            E(eV) 
   0   2.0000     -20.702857      -563.3534 
   1   2.0000     -20.702070      -563.3320 
   2   2.0000      -1.646347       -44.7994 
   3   2.0000      -1.092050       -29.7162 
   4   2.0000      -0.724498       -19.7146 
   5   1.6996      -0.646766       -17.5994 
   6   1.6996      -0.646766       -17.5994 
   7   1.3004      -0.264082        -7.1860 
   8   1.3004      -0.264082        -7.1860 
   9   0.0000       0.359436         9.7807 
  10   0.0000       0.481323        13.0975 
  11   0.0000       0.533772        14.5247 
  12   0.0000       0.533772        14.5247 
  13   0.0000       0.576245        15.6804 
  14   0.0000       0.645619        17.5682 
  15   0.0000       0.645619        17.5682 
  16   0.0000       0.678180        18.4542 
  17   0.0000       0.909392        24.7458 
  18   0.0000       1.474964        40.1358 
  19   0.0000       1.474964        40.1358 
  20   0.0000       1.564764        42.5794 
  21   0.0000       1.564764        42.5794 
  22   0.0000       1.903976        51.8098 
  23   0.0000       1.903976        51.8098 
  24   0.0000       2.115183        57.5571 
  25   0.0000       2.416140        65.7465 
  26   0.0000       2.416140        65.7465 
  27   0.0000       2.449032        66.6415 
  28   0.0000       2.810757        76.4846 
  29   0.0000       2.810757        76.4846 
  30   0.0000       2.881991        78.4230 
  31   0.0000       3.113960        84.7351 
  32   0.0000       3.150409        85.7270 
  33   0.0000       3.150409        85.7270 
  34   0.0000       3.296090        89.6912 
  35   0.0000       4.643537       126.3571 
  36   0.0000       4.995930       135.9462 
  37   0.0000       4.995930       135.9462 
  38   0.0000       5.041336       137.1817 
  39   0.0000       5.041336       137.1817 
  40   0.0000       5.343694       145.4093 
  41   0.0000       5.343694       145.4093 
  42   0.0000       5.436388       147.9316 
  43   0.0000       5.594906       152.2451 
  44   0.0000       5.594906       152.2451 
  45   0.0000       6.146249       167.2479 
  46   0.0000       6.146249       167.2479 
  47   0.0000       6.558019       178.4528 
  48   0.0000       6.558019       178.4528 
  49   0.0000       6.770844       184.2440 
  50   0.0000       6.770844       184.2440 
  51   0.0000       6.799177       185.0150 
  52   0.0000       6.799177       185.0150 
  53   0.0000       6.858129       186.6192 
  54   0.0000       6.914604       188.1559 
  55   0.0000       6.914604       188.1559 
  56   0.0000       7.679237       208.9627 
  57   0.0000       7.679237       208.9627 
  58   0.0000       7.958008       216.5484 
  59   0.0000       9.152144       249.0425 
  60   0.0000      44.519866      1211.4471 
  61   0.0000      45.058444      1226.1026 


---------------------------------------------
CAS-SCF STATES FOR BLOCK  0 MULT= 3 NROOTS= 5
---------------------------------------------

ROOT   0:  E=    -149.6968397107 Eh
      0.94470 [     5]: 2211
      0.05530 [     0]: 1122
ROOT   1:  E=    -149.5066770492 Eh  5.175 eV  41735.9 cm**-1
      0.50000 [     4]: 2121
      0.50000 [     1]: 1212
ROOT   2:  E=    -149.5066770491 Eh  5.175 eV  41735.9 cm**-1
      0.50000 [     2]: 1221
      0.50000 [     3]: 2112
ROOT   3:  E=    -149.5011308146 Eh  5.326 eV  42953.1 cm**-1
      0.49983 [     3]: 2112
      0.49983 [     2]: 1221
ROOT   4:  E=    -149.1939030766 Eh 13.686 eV 110381.8 cm**-1
      0.49983 [     4]: 2121
      0.49983 [     1]: 1212


---------------------------------------------
CAS-SCF STATES FOR BLOCK  1 MULT= 1 NROOTS= 4
---------------------------------------------

ROOT   0:  E=    -149.6689573005 Eh
      0.92139 [     8]: 2211
      0.07834 [     1]: 1122
ROOT   1:  E=    -149.6689573003 Eh  0.000 eV      0.0 cm**-1
      0.46070 [     7]: 2202
      0.46070 [     9]: 2220
      0.03917 [     4]: 2022
      0.03917 [     0]: 0222
ROOT   2:  E=    -149.6439147481 Eh  0.681 eV   5496.2 cm**-1
      0.44889 [     9]: 2220
      0.44889 [     7]: 2202
      0.05111 [     0]: 0222
      0.05111 [     4]: 2022
ROOT   3:  E=    -149.5122232837 Eh  4.265 eV  34399.1 cm**-1
      0.49983 [     6]: 2121
      0.49983 [     2]: 1212


-----------------------------
SA-CASSCF TRANSITION ENERGIES
------------------------------

LOWEST ROOT (ROOT 0 ,MULT 3) =   -149.696839711 Eh -4073.458 eV

STATE   ROOT MULT  DE/a.u.    DE/eV    DE/cm**-1
   1:    0    1   0.027882     0.759   6119.5
   2:    1    1   0.027882     0.759   6119.5
   3:    2    1   0.052925     1.440  11615.7
   4:    3    1   0.184616     5.024  40518.6
   5:    1    3   0.190163     5.175  41735.9
   6:    2    3   0.190163     5.175  41735.9
   7:    3    3   0.195709     5.326  42953.1
   8:    4    3   0.502937    13.686 110381.8


--------------
DENSITY MATRIX
--------------

                  0          1          2          3    
      0       1.699599   0.000000  -0.000000  -0.000000
      1       0.000000   1.699599  -0.000000  -0.000000
      2      -0.000000  -0.000000   1.300401  -0.000000
      3      -0.000000  -0.000000  -0.000000   1.300401
Trace of the electron density:  6.000000
Extracting Spin-Density from 2-RDM (MULT=3) ... done
Extracting Spin-Density from 2-RDM (MULT=1) ... done

-------------------
SPIN-DENSITY MATRIX
-------------------

                  0          1          2          3    
      0       0.205530  -0.000000   0.000000   0.000000
      1      -0.000000   0.205530   0.000000   0.000000
      2       0.000000   0.000000   0.294470  -0.000000
      3       0.000000   0.000000  -0.000000   0.294470
Trace of the spin density:  1.000000

-----------------
ENERGY COMPONENTS
-----------------

One electron energy          :   -261.708585077 Eh       -7121.4526 eV
Two electron energy          :     84.069275266 Eh        2287.6413 eV
Nuclear repulsion energy     :     28.087030462 Eh         764.2870 eV
                               ----------------
                                 -149.552279349

Kinetic energy               :    149.883645553 Eh        4078.5413 eV
Potential energy             :   -299.435924902 Eh       -8148.0658 eV
Virial ratio                 :     -1.997789177 
                               ----------------
                                 -149.552279349

Core energy                  :   -137.658950575 Eh    -3745.8905 eV


----------------------------
LOEWDIN ORBITAL-COMPOSITIONS
----------------------------

                      0         1         2         3         4         5   
                 -20.70286 -20.70207  -1.64635  -1.09205  -0.72450  -0.64677
                   2.00000   2.00000   2.00000   2.00000   2.00000   1.69960
                  --------  --------  --------  --------  --------  --------
 0 O  s              49.9      49.9      39.1      33.3       9.6       0.0
 0 O  pz              0.0       0.0       9.1      15.1      39.9       0.0
 0 O  py              0.0       0.0       0.0       0.0       0.0      48.8
 0 O  dz2             0.0       0.0       1.6       1.5       0.4       0.0
 0 O  dyz             0.0       0.0       0.0       0.0       0.0       1.1
 0 O  f0              0.0       0.0       0.2       0.1       0.1       0.0
 0 O  f-1             0.0       0.0       0.0       0.0       0.0       0.1
 1 O  s              49.9      49.9      39.1      33.3       9.6       0.0
 1 O  pz              0.0       0.0       9.1      15.1      39.9       0.0
 1 O  py              0.0       0.0       0.0       0.0       0.0      48.8
 1 O  dz2             0.0       0.0       1.6       1.5       0.4       0.0
 1 O  dyz             0.0       0.0       0.0       0.0       0.0       1.1
 1 O  f0              0.0       0.0       0.2       0.1       0.1       0.0
 1 O  f-1             0.0       0.0       0.0       0.0       0.0       0.1

                      6         7         8         9        10        11   
                  -0.64677  -0.26408  -0.26408   0.35944   0.48132   0.53377
                   1.69960   1.30040   1.30040   0.00000   0.00000   0.00000
                  --------  --------  --------  --------  --------  --------
 0 O  s               0.0       0.0       0.0       7.1      46.2       0.0
 0 O  pz              0.0       0.0       0.0      33.7       1.8       0.0
 0 O  px             48.8      47.6       0.0       0.0       0.0       3.1
 0 O  py              0.0       0.0      47.6       0.0       0.0      46.2
 0 O  dz2             0.0       0.0       0.0       8.9       1.9       0.0
 0 O  dxz             1.1       2.1       0.0       0.0       0.0       0.0
 0 O  dyz             0.0       0.0       2.1       0.0       0.0       0.5
 0 O  f0              0.0       0.0       0.0       0.3       0.1       0.0
 0 O  f+1             0.1       0.3       0.0       0.0       0.0       0.0
 0 O  f-1             0.0       0.0       0.3       0.0       0.0       0.1
 1 O  s               0.0       0.0       0.0       7.1      46.2       0.0
 1 O  pz              0.0       0.0       0.0      33.7       1.8       0.0
 1 O  px             48.8      47.6       0.0       0.0       0.0       3.1
 1 O  py              0.0       0.0      47.6       0.0       0.0      46.2
 1 O  dz2             0.0       0.0       0.0       8.9       1.9       0.0
 1 O  dxz             1.1       2.1       0.0       0.0       0.0       0.0
 1 O  dyz             0.0       0.0       2.1       0.0       0.0       0.5
 1 O  f0              0.0       0.0       0.0       0.3       0.1       0.0
 1 O  f+1             0.1       0.3       0.0       0.0       0.0       0.0
 1 O  f-1             0.0       0.0       0.3       0.0       0.0       0.1

                     12        13        14        15        16        17   
                   0.53377   0.57624   0.64562   0.64562   0.67818   0.90939
                   0.00000   0.00000   0.00000   0.00000   0.00000   0.00000
                  --------  --------  --------  --------  --------  --------
 0 O  s               0.0       0.6       0.0       0.0       1.6      44.7
 0 O  pz              0.0      44.8       0.0       0.0      40.7       2.2
 0 O  px             46.2       0.0       1.3      48.0       0.0       0.0
 0 O  py              3.1       0.0      48.0       1.3       0.0       0.0
 0 O  dz2             0.0       4.4       0.0       0.0       7.1       2.6
 0 O  dxz             0.5       0.0       0.0       0.6       0.0       0.0
 0 O  dyz             0.0       0.0       0.6       0.0       0.0       0.0
 0 O  f0              0.0       0.2       0.0       0.0       0.6       0.6
 0 O  f+1             0.1       0.0       0.0       0.1       0.0       0.0
 1 O  s               0.0       0.6       0.0       0.0       1.6      44.7
 1 O  pz              0.0      44.8       0.0       0.0      40.7       2.2
 1 O  px             46.2       0.0       1.3      48.0       0.0       0.0
 1 O  py              3.1       0.0      48.0       1.3       0.0       0.0
 1 O  dz2             0.0       4.4       0.0       0.0       7.1       2.6
 1 O  dxz             0.5       0.0       0.0       0.6       0.0       0.0
 1 O  dyz             0.0       0.0       0.6       0.0       0.0       0.0
 1 O  f0              0.0       0.2       0.0       0.0       0.6       0.6
 1 O  f+1             0.1       0.0       0.0       0.1       0.0       0.0

                     18        19        20        21        22        23   
                   1.47496   1.47496   1.56476   1.56476   1.90398   1.90398
                   0.00000   0.00000   0.00000   0.00000   0.00000   0.00000
                  --------  --------  --------  --------  --------  --------
 0 O  px              0.0       0.0       1.5       0.3       0.0       0.0
 0 O  py              0.0       0.0       0.3       1.5       0.0       0.0
 0 O  dxz             0.0       0.0      39.3       8.8       0.0       0.0
 0 O  dyz             0.0       0.0       8.8      39.3       0.0       0.0
 0 O  dx2y2          49.7       0.0       0.0       0.0      49.6       0.0
 0 O  dxy             0.0      49.7       0.0       0.0       0.0      49.6
 0 O  f+2             0.3       0.0       0.0       0.0       0.4       0.0
 0 O  f-2             0.0       0.3       0.0       0.0       0.0       0.4
 1 O  px              0.0       0.0       1.5       0.3       0.0       0.0
 1 O  py              0.0       0.0       0.3       1.5       0.0       0.0
 1 O  dxz             0.0       0.0      39.3       8.8       0.0       0.0
 1 O  dyz             0.0       0.0       8.8      39.3       0.0       0.0
 1 O  dx2y2          49.7       0.0       0.0       0.0      49.6       0.0
 1 O  dxy             0.0      49.7       0.0       0.0       0.0      49.6
 1 O  f+2             0.3       0.0       0.0       0.0       0.4       0.0
 1 O  f-2             0.0       0.3       0.0       0.0       0.0       0.4

                     24        25        26        27        28        29   
                   2.11518   2.41614   2.41614   2.44903   2.81076   2.81076
                   0.00000   0.00000   0.00000   0.00000   0.00000   0.00000
                  --------  --------  --------  --------  --------  --------
 0 O  s               4.6       0.0       0.0       5.4       0.0       0.0
 0 O  pz              9.3       0.0       0.0      16.8       0.0       0.0
 0 O  px              0.0       0.1       7.3       0.0       7.7      42.1
 0 O  py              0.0       7.3       0.1       0.0      42.1       7.7
 0 O  dz2            36.1       0.0       0.0      24.9       0.0       0.0
 0 O  dxz             0.0       0.3      39.4       0.0       0.0       0.1
 0 O  dyz             0.0      39.4       0.3       0.0       0.1       0.0
 0 O  f0              0.0       0.0       0.0       2.9       0.0       0.0
 0 O  f+1             0.0       0.0       2.8       0.0       0.0       0.0
 0 O  f-1             0.0       2.8       0.0       0.0       0.0       0.0
 1 O  s               4.6       0.0       0.0       5.4       0.0       0.0
 1 O  pz              9.3       0.0       0.0      16.8       0.0       0.0
 1 O  px              0.0       0.1       7.3       0.0       7.7      42.1
 1 O  py              0.0       7.3       0.1       0.0      42.1       7.7
 1 O  dz2            36.1       0.0       0.0      24.9       0.0       0.0
 1 O  dxz             0.0       0.3      39.4       0.0       0.0       0.1
 1 O  dyz             0.0      39.4       0.3       0.0       0.1       0.0
 1 O  f0              0.0       0.0       0.0       2.9       0.0       0.0
 1 O  f+1             0.0       0.0       2.8       0.0       0.0       0.0
 1 O  f-1             0.0       2.8       0.0       0.0       0.0       0.0

                     30        31        32        33        34        35   
                   2.88199   3.11396   3.15041   3.15041   3.29609   4.64354
                   0.00000   0.00000   0.00000   0.00000   0.00000   0.00000
                  --------  --------  --------  --------  --------  --------
 0 O  s              41.1      28.8       0.0       0.0       5.6      13.1
 0 O  pz              8.5      17.6       0.0       0.0      31.8      10.7
 0 O  px              0.0       0.0      29.6      12.5       0.0       0.0
 0 O  py              0.0       0.0      12.5      29.6       0.0       0.0
 0 O  dz2             0.1       3.1       0.0       0.0       5.8       0.0
 0 O  dxz             0.0       0.0       2.3       1.0       0.0       0.0
 0 O  dyz             0.0       0.0       1.0       2.3       0.0       0.0
 0 O  f0              0.3       0.5       0.0       0.0       6.8      26.2
 0 O  f+1             0.0       0.0       3.2       1.4       0.0       0.0
 0 O  f-1             0.0       0.0       1.4       3.2       0.0       0.0
 1 O  s              41.1      28.8       0.0       0.0       5.6      13.1
 1 O  pz              8.5      17.6       0.0       0.0      31.8      10.7
 1 O  px              0.0       0.0      29.6      12.5       0.0       0.0
 1 O  py              0.0       0.0      12.5      29.6       0.0       0.0
 1 O  dz2             0.1       3.1       0.0       0.0       5.8       0.0
 1 O  dxz             0.0       0.0       2.3       1.0       0.0       0.0
 1 O  dyz             0.0       0.0       1.0       2.3       0.0       0.0
 1 O  f0              0.3       0.5       0.0       0.0       6.8      26.2
 1 O  f+1             0.0       0.0       3.2       1.4       0.0       0.0
 1 O  f-1             0.0       0.0       1.4       3.2       0.0       0.0

                     36        37        38        39        40        41   
                   4.99593   4.99593   5.04134   5.04134   5.34369   5.34369
                   0.00000   0.00000   0.00000   0.00000   0.00000   0.00000
                  --------  --------  --------  --------  --------  --------
 0 O  px              0.0       0.0       0.1       0.0       0.0       0.0
 0 O  py              0.0       0.0       0.0       0.1       0.0       0.0
 0 O  dxz             0.0       0.0       3.5       1.0       0.0       0.0
 0 O  dyz             0.0       0.0       1.0       3.5       0.0       0.0
 0 O  dx2y2           0.3       0.0       0.0       0.0       0.0       0.0
 0 O  dxy             0.0       0.3       0.0       0.0       0.0       0.0
 0 O  f+1             0.0       0.0      35.0      10.3       0.0       0.0
 0 O  f-1             0.0       0.0      10.3      35.0       0.0       0.0
 0 O  f+2            49.7       0.0       0.0       0.0       0.0       0.0
 0 O  f-2             0.0      49.7       0.0       0.0       0.0       0.0
 0 O  f+3             0.0       0.0       0.0       0.0      24.6      25.4
 0 O  f-3             0.0       0.0       0.0       0.0      25.4      24.6
 1 O  px              0.0       0.0       0.1       0.0       0.0       0.0
 1 O  py              0.0       0.0       0.0       0.1       0.0       0.0
 1 O  dxz             0.0       0.0       3.5       1.0       0.0       0.0
 1 O  dyz             0.0       0.0       1.0       3.5       0.0       0.0
 1 O  dx2y2           0.3       0.0       0.0       0.0       0.0       0.0
 1 O  dxy             0.0       0.3       0.0       0.0       0.0       0.0
 1 O  f+1             0.0       0.0      35.0      10.3       0.0       0.0
 1 O  f-1             0.0       0.0      10.3      35.0       0.0       0.0
 1 O  f+2            49.7       0.0       0.0       0.0       0.0       0.0
 1 O  f-2             0.0      49.7       0.0       0.0       0.0       0.0
 1 O  f+3             0.0       0.0       0.0       0.0      24.6      25.4
 1 O  f-3             0.0       0.0       0.0       0.0      25.4      24.6

                     42        43        44        45        46        47   
                   5.43639   5.59491   5.59491   6.14625   6.14625   6.55802
                   0.00000   0.00000   0.00000   0.00000   0.00000   0.00000
                  --------  --------  --------  --------  --------  --------
 0 O  s               1.6       0.0       0.0       0.0       0.0       0.0
 0 O  pz              2.4       0.0       0.0       0.0       0.0       0.0
 0 O  dz2            16.6       0.0       0.0       0.0       0.0       0.0
 0 O  dx2y2           0.0       0.0       0.0       5.8       0.0      50.0
 0 O  dxy             0.0       0.0       0.0       0.0       5.8       0.0
 0 O  f0             29.4       0.0       0.0       0.0       0.0       0.0
 0 O  f+2             0.0       0.0       0.0      44.2       0.0       0.0
 0 O  f-2             0.0       0.0       0.0       0.0      44.2       0.0
 0 O  f+3             0.0      21.9      28.1       0.0       0.0       0.0
 0 O  f-3             0.0      28.1      21.9       0.0       0.0       0.0
 1 O  s               1.6       0.0       0.0       0.0       0.0       0.0
 1 O  pz              2.4       0.0       0.0       0.0       0.0       0.0
 1 O  dz2            16.6       0.0       0.0       0.0       0.0       0.0
 1 O  dx2y2           0.0       0.0       0.0       5.8       0.0      50.0
 1 O  dxy             0.0       0.0       0.0       0.0       5.8       0.0
 1 O  f0             29.4       0.0       0.0       0.0       0.0       0.0
 1 O  f+2             0.0       0.0       0.0      44.2       0.0       0.0
 1 O  f-2             0.0       0.0       0.0       0.0      44.2       0.0
 1 O  f+3             0.0      21.9      28.1       0.0       0.0       0.0
 1 O  f-3             0.0      28.1      21.9       0.0       0.0       0.0

                     48        49        50        51        52        53   
                   6.55802   6.77084   6.77084   6.79918   6.79918   6.85813
                   0.00000   0.00000   0.00000   0.00000   0.00000   0.00000
                  --------  --------  --------  --------  --------  --------
 0 O  s               0.0       0.0       0.0       0.0       0.0       2.4
 0 O  pz              0.0       0.0       0.0       0.0       0.0       1.5
 0 O  px              0.0       0.0       0.0       0.0       0.1       0.0
 0 O  py              0.0       0.0       0.0       0.1       0.0       0.0
 0 O  dz2             0.0       0.0       0.0       0.0       0.0      43.8
 0 O  dxz             0.0       0.0       0.0       0.2      46.9       0.0
 0 O  dyz             0.0       0.0       0.0      46.9       0.2       0.0
 0 O  dx2y2           0.0      44.6       0.0       0.0       0.0       0.0
 0 O  dxy            50.0       0.0      44.6       0.0       0.0       0.0
 0 O  f0              0.0       0.0       0.0       0.0       0.0       2.2
 0 O  f+1             0.0       0.0       0.0       0.0       2.8       0.0
 0 O  f-1             0.0       0.0       0.0       2.8       0.0       0.0
 0 O  f+2             0.0       5.4       0.0       0.0       0.0       0.0
 0 O  f-2             0.0       0.0       5.4       0.0       0.0       0.0
 1 O  s               0.0       0.0       0.0       0.0       0.0       2.4
 1 O  pz              0.0       0.0       0.0       0.0       0.0       1.5
 1 O  px              0.0       0.0       0.0       0.0       0.1       0.0
 1 O  py              0.0       0.0       0.0       0.1       0.0       0.0
 1 O  dz2             0.0       0.0       0.0       0.0       0.0      43.8
 1 O  dxz             0.0       0.0       0.0       0.2      46.9       0.0
 1 O  dyz             0.0       0.0       0.0      46.9       0.2       0.0
 1 O  dx2y2           0.0      44.6       0.0       0.0       0.0       0.0
 1 O  dxy            50.0       0.0      44.6       0.0       0.0       0.0
 1 O  f0              0.0       0.0       0.0       0.0       0.0       2.2
 1 O  f+1             0.0       0.0       0.0       0.0       2.8       0.0
 1 O  f-1             0.0       0.0       0.0       2.8       0.0       0.0
 1 O  f+2             0.0       5.4       0.0       0.0       0.0       0.0
 1 O  f-2             0.0       0.0       5.4       0.0       0.0       0.0

                     54        55        56        57        58        59   
                   6.91460   6.91460   7.67924   7.67924   7.95801   9.15214
                   0.00000   0.00000   0.00000   0.00000   0.00000   0.00000
                  --------  --------  --------  --------  --------  --------
 0 O  s               0.0       0.0       0.0       0.0       1.8      13.7
 0 O  pz              0.0       0.0       0.0       0.0       2.2      11.6
 0 O  px              0.0       0.0       3.0       0.4       0.0       0.0
 0 O  py              0.0       0.0       0.4       3.0       0.0       0.0
 0 O  dz2             0.0       0.0       0.0       0.0      33.2       7.9
 0 O  dxz            19.9      25.7       6.2       0.9       0.0       0.0
 0 O  dyz            25.7      19.9       0.9       6.2       0.0       0.0
 0 O  f0              0.0       0.0       0.0       0.0      12.8      16.8
 0 O  f+1             1.9       2.5      34.6       4.9       0.0       0.0
 0 O  f-1             2.5       1.9       4.9      34.6       0.0       0.0
 1 O  s               0.0       0.0       0.0       0.0       1.8      13.7
 1 O  pz              0.0       0.0       0.0       0.0       2.2      11.6
 1 O  px              0.0       0.0       3.0       0.4       0.0       0.0
 1 O  py              0.0       0.0       0.4       3.0       0.0       0.0
 1 O  dz2             0.0       0.0       0.0       0.0      33.2       7.9
 1 O  dxz            19.9      25.7       6.2       0.9       0.0       0.0
 1 O  dyz            25.7      19.9       0.9       6.2       0.0       0.0
 1 O  f0              0.0       0.0       0.0       0.0      12.8      16.8
 1 O  f+1             1.9       2.5      34.6       4.9       0.0       0.0
 1 O  f-1             2.5       1.9       4.9      34.6       0.0       0.0

                     60        61   
                  44.51987  45.05844
                   0.00000   0.00000
                  --------  --------
 0 O  s              50.0      50.0
 1 O  s              50.0      50.0

----------------------------
LOEWDIN REDUCED ACTIVE MOs  
----------------------------

                      0         1         2         3         4         5   
                 -20.70286 -20.70207  -1.64635  -1.09205  -0.72450  -0.64677
                   2.00000   2.00000   2.00000   2.00000   2.00000   1.69960
                  --------  --------  --------  --------  --------  --------
 0 O  s              49.9      49.9      39.1      33.3       9.6       0.0
 0 O  pz              0.0       0.0       9.1      15.1      39.9       0.0
 0 O  py              0.0       0.0       0.0       0.0       0.0      48.8
 1 O  s              49.9      49.9      39.1      33.3       9.6       0.0
 1 O  pz              0.0       0.0       9.1      15.1      39.9       0.0
 1 O  py              0.0       0.0       0.0       0.0       0.0      48.8

                      6         7         8         9        10        11   
                  -0.64677  -0.26408  -0.26408   0.35944   0.48132   0.53377
                   1.69960   1.30040   1.30040   0.00000   0.00000   0.00000
                  --------  --------  --------  --------  --------  --------
 0 O  s               0.0       0.0       0.0       7.1      46.2       0.0
 0 O  pz              0.0       0.0       0.0      33.7       1.8       0.0
 0 O  px             48.8      47.6       0.0       0.0       0.0       3.1
 0 O  py              0.0       0.0      47.6       0.0       0.0      46.2
 0 O  dz2             0.0       0.0       0.0       8.9       1.9       0.0
 1 O  s               0.0       0.0       0.0       7.1      46.2       0.0
 1 O  pz              0.0       0.0       0.0      33.7       1.8       0.0
 1 O  px             48.8      47.6       0.0       0.0       0.0       3.1
 1 O  py              0.0       0.0      47.6       0.0       0.0      46.2
 1 O  dz2             0.0       0.0       0.0       8.9       1.9       0.0

------------------------------------------------------------------------------
                           ORCA POPULATION ANALYSIS
------------------------------------------------------------------------------
Input electron density              ... mol.scfp
Input spin density                  ... mol.scfr
BaseName (.gbw .S,...)              ... mol

                    ********************************
                    * MULLIKEN POPULATION ANALYSIS *
                    ********************************

------------------------------------------
MULLIKEN ATOMIC CHARGES AND SPIN DENSITIES
------------------------------------------
   0 O :   -0.000000    0.500000
   1 O :    0.000000    0.500000
Sum of atomic charges       :   -0.0000000
Sum of atomic spin densities:    1.0000000

---------------------------------------------------
MULLIKEN REDUCED ORBITAL CHARGES AND SPIN DENSITIES
---------------------------------------------------
CHARGE
  0 O s       :     3.915467  s :     3.915467
      pz      :     1.059673  p :     4.032294
      px      :     1.486311
      py      :     1.486311
      dz2     :     0.022488  d :     0.047595
      dxz     :     0.012553
      dyz     :     0.012553
      dx2y2   :     0.000000
      dxy     :     0.000000
      f0      :     0.002372  f :     0.004644
      f+1     :     0.001136
      f-1     :     0.001136
      f+2     :     0.000000
      f-2     :     0.000000
      f+3     :     0.000000
      f-3     :     0.000000
  1 O s       :     3.915467  s :     3.915467
      pz      :     1.059673  p :     4.032294
      px      :     1.486311
      py      :     1.486311
      dz2     :     0.022488  d :     0.047595
      dxz     :     0.012553
      dyz     :     0.012553
      dx2y2   :     0.000000
      dxy     :     0.000000
      f0      :     0.002372  f :     0.004644
      f+1     :     0.001136
      f-1     :     0.001136
      f+2     :     0.000000
      f-2     :     0.000000
      f+3     :     0.000000
      f-3     :     0.000000

SPIN
  0 O s       :     0.000000  s :     0.000000
      pz      :    -0.000000  p :     0.496543
      px      :     0.248272
      py      :     0.248272
      dz2     :     0.000000  d :     0.003153
      dxz     :     0.001576
      dyz     :     0.001576
      dx2y2   :     0.000000
      dxy     :     0.000000
      f0      :    -0.000000  f :     0.000304
      f+1     :     0.000152
      f-1     :     0.000152
      f+2     :     0.000000
      f-2     :     0.000000
      f+3     :     0.000000
      f-3     :     0.000000
  1 O s       :     0.000000  s :     0.000000
      pz      :    -0.000000  p :     0.496543
      px      :     0.248272
      py      :     0.248272
      dz2     :     0.000000  d :     0.003153
      dxz     :     0.001576
      dyz     :     0.001576
      dx2y2   :     0.000000
      dxy     :     0.000000
      f0      :    -0.000000  f :     0.000304
      f+1     :     0.000152
      f-1     :     0.000152
      f+2     :     0.000000
      f-2     :     0.000000
      f+3     :     0.000000
      f-3     :     0.000000


                     *******************************
                     * LOEWDIN POPULATION ANALYSIS *
                     *******************************

-----------------------------------------
LOEWDIN ATOMIC CHARGES AND SPIN DENSITIES
-----------------------------------------
   0 O :   -0.000000    0.500000
   1 O :    0.000000    0.500000

--------------------------------------------------
LOEWDIN REDUCED ORBITAL CHARGES AND SPIN DENSITIES
--------------------------------------------------
CHARGE
  0 O s       :     3.636830  s :     3.636830
      pz      :     1.283455  p :     4.179097
      px      :     1.447821
      py      :     1.447821
      dz2     :     0.072244  d :     0.163882
      dxz     :     0.045819
      dyz     :     0.045819
      dx2y2   :     0.000000
      dxy     :     0.000000
      f0      :     0.007471  f :     0.020191
      f+1     :     0.006360
      f-1     :     0.006360
      f+2     :     0.000000
      f-2     :     0.000000
      f+3     :     0.000000
      f-3     :     0.000000
  1 O s       :     3.636830  s :     3.636830
      pz      :     1.283455  p :     4.179097
      px      :     1.447821
      py      :     1.447821
      dz2     :     0.072244  d :     0.163882
      dxz     :     0.045819
      dyz     :     0.045819
      dx2y2   :     0.000000
      dxy     :     0.000000
      f0      :     0.007471  f :     0.020191
      f+1     :     0.006360
      f-1     :     0.006360
      f+2     :     0.000000
      f-2     :     0.000000
      f+3     :     0.000000
      f-3     :     0.000000

SPIN
  0 O s       :     0.000000  s :     0.000000
      pz      :     0.000000  p :     0.480812
      px      :     0.240406
      py      :     0.240406
      dz2     :     0.000000  d :     0.016791
      dxz     :     0.008395
      dyz     :     0.008395
      dx2y2   :     0.000000
      dxy     :     0.000000
      f0      :     0.000000  f :     0.002398
      f+1     :     0.001199
      f-1     :     0.001199
      f+2     :     0.000000
      f-2     :     0.000000
      f+3     :     0.000000
      f-3     :     0.000000
  1 O s       :     0.000000  s :     0.000000
      pz      :     0.000000  p :     0.480812
      px      :     0.240406
      py      :     0.240406
      dz2     :     0.000000  d :     0.016791
      dxz     :     0.008395
      dyz     :     0.008395
      dx2y2   :     0.000000
      dxy     :     0.000000
      f0      :     0.000000  f :     0.002398
      f+1     :     0.001199
      f-1     :     0.001199
      f+2     :     0.000000
      f-2     :     0.000000
      f+3     :     0.000000
      f-3     :     0.000000


                      *****************************
                      * MAYER POPULATION ANALYSIS *
                      *****************************

  NA   - Mulliken gross atomic population
  ZA   - Total nuclear charge
  QA   - Mulliken gross atomic charge
  VA   - Mayer's total valence
  BVA  - Mayer's bonded valence
  FA   - Mayer's free valence

  ATOM       NA         ZA         QA         VA         BVA        FA
  0 O      8.0000     8.0000    -0.0000     2.2971     0.8798     1.4173
  1 O      8.0000     8.0000     0.0000     2.2971     0.8798     1.4173

  Mayer bond orders larger than 0.100000
B(  0-O ,  1-O ) :   0.8798 


----------------------------------------------------------------
                           < NEVPT2  >                          
----------------------------------------------------------------

SYSTEM-SPECIFIC SETTINGS:
Number of active electrons          ...    6
Number of active orbitals           ...    4
Total number of electrons           ...   16
Total number of orbitals            ...   62

Determined orbital ranges:
   Internal       0 -    4 (   5 orbitals)
   Active         5 -    8 (   4 orbitals)
   External       9 -   61 (  53 orbitals)
  Last  frozen  orbital             ... 1
  First deleted orbital             ... 62
Number of multiplicity blocks       ...    2
BLOCK  0 WEIGHT=   0.5000
  Multiplicity                      ...    3
  #(Configurations)                 ...    6
  #(CSFs)                           ...    6
  #(Roots)                          ...    5
  PrintLevel                        ...    1

BLOCK  1 WEIGHT=   0.5000
  Multiplicity                      ...    1
  #(Configurations)                 ...   10
  #(CSFs)                           ...   10
  #(Roots)                          ...    4
  PrintLevel                        ...    1

INTEGRAL-TRANSFORMATION-STEP:
  Algorithm                         ... EXACT

PT2-SETTINGS:
 CI step strategy                   ... General CI
  D4C handling                      ... PS approximation (factorized) 
  CI truncation for D4C at          ...  1.00e-12
  CI truncation for D3  at          ...  1.00e-14
  NThresh (linear dependencies)     ...  1.00e-06
  Orbitals                          ... canonical for each state 
  PrintLevel                        ... 1 

 --------------------
  MULT 3, ROOT 0 
 --------------------
   --- Canonicalize Internal Space
   --- Canonicalize External Space

     D1, D2 Build      ... done in        0.0 sec
     D3 Build          ... WARNING (TGeneralCI): NROOTS=5  > NCSF =2. The ORCA input is flawed!
                      ==>> Reducing to NROOTS=NCSF=2
CI space truncated: 6 -> 2 CFGs 
                       ... RI space truncated: 6 -> 6 CFGs 
                       ... 
                       ... correcting norm (1.000000e+00) 
                       ... done in        0.0 sec
     D4 Build          ... WARNING (TGeneralCI): NROOTS=5  > NCSF =2. The ORCA input is flawed!
                      ==>> Reducing to NROOTS=NCSF=2
CI space truncated: 6 -> 2 CFGs 
                       ... RI space truncated: 6 -> 6 CFGs 
                       ... 
                       ... correcting norm (1.000000e+00) 
                       ... 
 Dimensions: NCSF       = 2 
             NCSF_RI    = 6 

 4-RDM-NEVPT2() timings:
 Time Step0         =              0.0 sec ( 2.84 percent)
 Time Step1         =              0.0 sec (12.50 percent)
 Time Step2         =              0.0 sec (17.61 percent)
 Time Step3         =              0.0 sec (11.36 percent)

                       ... done in        0.0 sec
     Hole densities    ... done in        0.0 sec
     Calc Fock         ... done in        0.1 sec
     Class V0_ijab     ... done in        0.0 sec
     Class Vm1_iab     ... done in        0.0 sec
     Class Vm2_ab      ... done in        0.0 sec
     Class V1_ija      ... done in        0.0 sec
     Class V2_ij       ... done in        0.0 sec
     Class V0_ia       ... done in        0.0 sec
     Class Vm1_a       ... done in        0.0 sec
     Class V1_i        ... done in        0.0 sec
 --------------------
  MULT 3, ROOT 1 
 --------------------
   --- Canonicalize Internal Space
   --- Canonicalize External Space

     D1, D2 Build      ... done in        0.0 sec
     D3 Build          ... WARNING (TGeneralCI): NROOTS=5  > NCSF =4. The ORCA input is flawed!
                      ==>> Reducing to NROOTS=NCSF=4
CI space truncated: 6 -> 4 CFGs 
                       ... RI space truncated: 6 -> 6 CFGs 
                       ... 
                       ... correcting norm (1.000000e+00) 
                       ... done in        0.0 sec
     D4 Build          ... WARNING (TGeneralCI): NROOTS=5  > NCSF =4. The ORCA input is flawed!
                      ==>> Reducing to NROOTS=NCSF=4
CI space truncated: 6 -> 4 CFGs 
                       ... RI space truncated: 6 -> 6 CFGs 
                       ... 
                       ... correcting norm (1.000000e+00) 
                       ... 
 Dimensions: NCSF       = 4 
             NCSF_RI    = 6 

 4-RDM-NEVPT2() timings:
 Time Step0         =              0.0 sec ( 2.47 percent)
 Time Step1         =              0.0 sec (13.58 percent)
 Time Step2         =              0.0 sec (19.14 percent)
 Time Step3         =              0.0 sec (12.35 percent)

                       ... done in        0.0 sec
     Hole densities    ... done in        0.0 sec
     Calc Fock         ... done in        0.1 sec
     Class V0_ijab     ... done in        0.0 sec
     Class Vm1_iab     ... done in        0.0 sec
     Class Vm2_ab      ... done in        0.0 sec
     Class V1_ija      ... done in        0.0 sec
     Class V2_ij       ... done in        0.0 sec
     Class V0_ia       ... done in        0.0 sec
     Class Vm1_a       ... done in        0.0 sec
     Class V1_i        ... done in        0.0 sec
 --------------------
  MULT 3, ROOT 2 
 --------------------
   --- Canonicalize Internal Space
   --- Canonicalize External Space

     D1, D2 Build      ... done in        0.0 sec
     D3 Build          ... WARNING (TGeneralCI): NROOTS=5  > NCSF =4. The ORCA input is flawed!
                      ==>> Reducing to NROOTS=NCSF=4
CI space truncated: 6 -> 4 CFGs 
                       ... RI space truncated: 6 -> 6 CFGs 
                       ... 
                       ... correcting norm (1.000000e+00) 
                       ... done in        0.0 sec
     D4 Build          ... WARNING (TGeneralCI): NROOTS=5  > NCSF =4. The ORCA input is flawed!
                      ==>> Reducing to NROOTS=NCSF=4
CI space truncated: 6 -> 4 CFGs 
                       ... RI space truncated: 6 -> 6 CFGs 
                       ... 
                       ... correcting norm (1.000000e+00) 
                       ... 
 Dimensions: NCSF       = 4 
             NCSF_RI    = 6 

 4-RDM-NEVPT2() timings:
 Time Step0         =              0.0 sec ( 2.44 percent)
 Time Step1         =              0.0 sec (14.02 percent)
 Time Step2         =              0.0 sec (18.90 percent)
 Time Step3         =              0.0 sec (12.20 percent)

                       ... done in        0.0 sec
     Hole densities    ... done in        0.0 sec
     Calc Fock         ... done in        0.1 sec
     Class V0_ijab     ... done in        0.0 sec
     Class Vm1_iab     ... done in        0.0 sec
     Class Vm2_ab      ... done in        0.0 sec
     Class V1_ija      ... done in        0.0 sec
     Class V2_ij       ... done in        0.0 sec
     Class V0_ia       ... done in        0.0 sec
     Class Vm1_a       ... done in        0.0 sec
     Class V1_i        ... done in        0.0 sec
 --------------------
  MULT 3, ROOT 3 
 --------------------
   --- Canonicalize Internal Space
   --- Canonicalize External Space

     D1, D2 Build      ... done in        0.0 sec
     D3 Build          ... WARNING (TGeneralCI): NROOTS=5  > NCSF =4. The ORCA input is flawed!
                      ==>> Reducing to NROOTS=NCSF=4
CI space truncated: 6 -> 4 CFGs 
                       ... RI space truncated: 6 -> 6 CFGs 
                       ... 
                       ... correcting norm (1.000000e+00) 
                       ... done in        0.0 sec
     D4 Build          ... WARNING (TGeneralCI): NROOTS=5  > NCSF =4. The ORCA input is flawed!
                      ==>> Reducing to NROOTS=NCSF=4
CI space truncated: 6 -> 4 CFGs 
                       ... RI space truncated: 6 -> 6 CFGs 
                       ... 
                       ... correcting norm (1.000000e+00) 
                       ... 
 Dimensions: NCSF       = 4 
             NCSF_RI    = 6 

 4-RDM-NEVPT2() timings:
 Time Step0         =              0.0 sec ( 2.58 percent)
 Time Step1         =              0.0 sec (14.84 percent)
 Time Step2         =              0.0 sec (19.35 percent)
 Time Step3         =              0.0 sec (12.90 percent)

                       ... done in        0.0 sec
     Hole densities    ... done in        0.0 sec
     Calc Fock         ... done in        0.1 sec
     Class V0_ijab     ... done in        0.0 sec
     Class Vm1_iab     ... done in        0.0 sec
     Class Vm2_ab      ... done in        0.0 sec
     Class V1_ija      ... done in        0.0 sec
     Class V2_ij       ... done in        0.0 sec
     Class V0_ia       ... done in        0.0 sec
     Class Vm1_a       ... done in        0.0 sec
     Class V1_i        ... done in        0.0 sec
 --------------------
  MULT 3, ROOT 4 
 --------------------
   --- Canonicalize Internal Space
   --- Canonicalize External Space

     D1, D2 Build      ... done in        0.0 sec
     D3 Build          ... WARNING (TGeneralCI): NROOTS=5  > NCSF =4. The ORCA input is flawed!
                      ==>> Reducing to NROOTS=NCSF=4
CI space truncated: 6 -> 4 CFGs 
                       ... RI space truncated: 6 -> 6 CFGs 
                       ... 
                       ... correcting norm (1.000000e+00) 
                       ... done in        0.0 sec
     D4 Build          ... WARNING (TGeneralCI): NROOTS=5  > NCSF =4. The ORCA input is flawed!
                      ==>> Reducing to NROOTS=NCSF=4
CI space truncated: 6 -> 4 CFGs 
                       ... RI space truncated: 6 -> 6 CFGs 
                       ... 
                       ... correcting norm (1.000000e+00) 
                       ... 
 Dimensions: NCSF       = 4 
             NCSF_RI    = 6 

 4-RDM-NEVPT2() timings:
 Time Step0         =              0.0 sec ( 1.94 percent)
 Time Step1         =              0.0 sec (15.48 percent)
 Time Step2         =              0.0 sec (19.35 percent)
 Time Step3         =              0.0 sec (12.90 percent)

                       ... done in        0.0 sec
     Hole densities    ... done in        0.0 sec
     Calc Fock         ... done in        0.1 sec
     Class V0_ijab     ... done in        0.0 sec
     Class Vm1_iab     ... done in        0.0 sec
     Class Vm2_ab      ... done in        0.0 sec
     Class V1_ija      ... done in        0.0 sec
     Class V2_ij       ... done in        0.0 sec
     Class V0_ia       ... done in        0.0 sec
     Class Vm1_a       ... done in        0.0 sec
[...]
  1-3.0A  ->  8-3.0A    6.546663   52802.4   189.4   0.000000000   0.00000   0.00000   0.00000   0.00000
  0-3.0A  ->  7-3.0A    6.546971   52804.9   189.4   0.000000000   0.00000   0.00000   0.00000   0.00000
  0-3.0A  ->  8-3.0A    6.546971   52804.9   189.4   0.000000000   0.00000   0.00000   0.00000   0.00000
  2-3.0A  ->  9-3.0A    6.565607   52955.2   188.8   0.000000000   0.00000   0.00000   0.00000   0.00000
  1-3.0A  ->  9-3.0A    6.565607   52955.2   188.8   0.000000000   0.00000   0.00000   0.00000   0.00000
  2-3.0A  -> 10-3.0A    6.565612   52955.2   188.8   0.000000000   0.00000   0.00000   0.00000   0.00000
  1-3.0A  -> 10-3.0A    6.565612   52955.2   188.8   0.000000000   0.00000   0.00000   0.00000   0.00000
  0-3.0A  ->  9-3.0A    6.565914   52957.7   188.8   0.000000000   0.00000   0.00000   0.00000   0.00000
  0-3.0A  -> 10-3.0A    6.565919   52957.7   188.8   0.000000000   0.00000   0.00000   0.00000   0.00000
  2-3.0A  -> 11-3.0A    6.584370   53106.5   188.3   0.000000001   0.00000   0.00000   0.00000   0.00010
  1-3.0A  -> 11-3.0A    6.584370   53106.5   188.3   0.000000000   0.00000   0.00000   0.00000   0.00002
  2-3.0A  -> 12-3.0A    6.584370   53106.5   188.3   0.000000000   0.00000   0.00000   0.00000   0.00002
  1-3.0A  -> 12-3.0A    6.584370   53106.5   188.3   0.000000001   0.00000   0.00000   0.00000   0.00010
  0-3.0A  -> 11-3.0A    6.584678   53109.0   188.3   0.000000000   0.00000   0.00000   0.00000   0.00000
  0-3.0A  -> 12-3.0A    6.584678   53109.0   188.3   0.000000000   0.00000   0.00000   0.00000   0.00000
  2-3.0A  -> 13-3.0A    6.693035   53983.0   185.2   0.011749946   0.21583   0.00000   0.00000   0.46457
  1-3.0A  -> 13-3.0A    6.693035   53983.0   185.2   0.061444838   1.12864   0.00000   0.00000   1.06237
  2-3.0A  -> 14-3.0A    6.693035   53983.0   185.2   0.061444838   1.12864   0.00000   0.00000   1.06237
  1-3.0A  -> 14-3.0A    6.693035   53983.0   185.2   0.011749946   0.21583   0.00000   0.00000   0.46457
  2-3.0A  -> 15-3.0A    6.693251   53984.7   185.2   0.000000000   0.00000   0.00000   0.00000   0.00000
  1-3.0A  -> 15-3.0A    6.693251   53984.7   185.2   0.000000000   0.00000   0.00000   0.00000   0.00000
  0-3.0A  -> 13-3.0A    6.693342   53985.5   185.2   0.000000000   0.00000   0.00000   0.00000   0.00000
  0-3.0A  -> 14-3.0A    6.693342   53985.5   185.2   0.000000000   0.00000   0.00000   0.00000   0.00000
  0-3.0A  -> 15-3.0A    6.693559   53987.2   185.2   0.078138636   1.41819   0.00000   0.00000   1.19088
  2-3.0A  -> 16-3.0A    6.703855   54070.2   184.9   0.002779368   0.05097   0.00000   0.00000   0.22577
  1-3.0A  -> 16-3.0A    6.703855   54070.2   184.9   0.001249533   0.02291   0.00000   0.00000   0.15138
  2-3.0A  -> 17-3.0A    6.703855   54070.2   184.9   0.001249533   0.02291   0.00000   0.00000   0.15138
  1-3.0A  -> 17-3.0A    6.703855   54070.2   184.9   0.002779368   0.05097   0.00000   0.00000   0.22577
  0-3.0A  -> 16-3.0A    6.704163   54072.7   184.9   0.000000000   0.00000   0.00000   0.00000   0.00000
  0-3.0A  -> 17-3.0A    6.704163   54072.7   184.9   0.000000000   0.00000   0.00000   0.00000   0.00000
  2-3.0A  -> 18-3.0A    6.704452   54075.1   184.9   0.000000000   0.00000   0.00000   0.00000   0.00000
  1-3.0A  -> 18-3.0A    6.704452   54075.1   184.9   0.000000000   0.00000   0.00000   0.00000   0.00000
  0-3.0A  -> 18-3.0A    6.704760   54077.5   184.9   0.000000000   0.00000   0.00000   0.00000   0.00000

----------------------------------------------------------------------------------------------
  SOC+SSC CORRECTED CD SPECTRUM VIA TRANSITION ELECTRIC DIPOLE MOMENTS    
----------------------------------------------------------------------------------------------
      Transition         Energy     Energy  Wavelength    R       |MX|      |MY|      |MZ|  
                          (eV)      (cm-1)    (nm)    (1e40*cgs)  (au)      (au)      (au)  
----------------------------------------------------------------------------------------------
  1-3.0A  ->  2-3.0A    0.000000       0.0     0.0    0.00000   0.00000   0.00000   0.00000
  0-3.0A  ->  1-3.0A    0.000308       2.5  4029938.2   -0.00000   0.00000   0.00000   0.00000
  0-3.0A  ->  2-3.0A    0.000308       2.5  4029938.2   -0.00000   0.00000   0.00000   0.00000
  2-3.0A  ->  3-1.0A    1.035668    8353.2  1197.1   -0.00000   0.00000   0.00000   0.00000
  1-3.0A  ->  3-1.0A    1.035668    8353.2  1197.1    0.00000   0.00000   0.00000   0.00000
  2-3.0A  ->  4-1.0A    1.035675    8353.3  1197.1   -0.00000   0.00000   0.00000   0.00000
  1-3.0A  ->  4-1.0A    1.035675    8353.3  1197.1    0.00000   0.00000   0.00000   0.00000
  0-3.0A  ->  3-1.0A    1.035976    8355.7  1196.8    0.00000   0.00000   0.00000   0.00000
  0-3.0A  ->  4-1.0A    1.035983    8355.8  1196.8    0.00000   0.00000   0.00000   0.00000
  2-3.0A  ->  5-1.0A    1.929163   15559.7   642.7    0.00000   0.00000   0.00000   0.00000
  1-3.0A  ->  5-1.0A    1.929163   15559.7   642.7   -0.00000   0.00000   0.00000   0.00000
  0-3.0A  ->  5-1.0A    1.929470   15562.2   642.6    0.00000   0.00000   0.00000   0.00000
  2-3.0A  ->  6-1.0A    6.363810   51327.6   194.8   -0.00000   0.00000   0.00000   0.00000
  1-3.0A  ->  6-1.0A    6.363810   51327.6   194.8    0.00000   0.00000   0.00000   0.00000
  0-3.0A  ->  6-1.0A    6.364118   51330.1   194.8   -0.00000   0.00000   0.00000   0.00000
  2-3.0A  ->  7-3.0A    6.546663   52802.4   189.4    0.00000   0.00000   0.00000   0.00000
  1-3.0A  ->  7-3.0A    6.546663   52802.4   189.4   -0.00000   0.00000   0.00000   0.00000
  2-3.0A  ->  8-3.0A    6.546663   52802.4   189.4    0.00000   0.00000   0.00000   0.00000
  1-3.0A  ->  8-3.0A    6.546663   52802.4   189.4   -0.00000   0.00000   0.00000   0.00000
  0-3.0A  ->  7-3.0A    6.546971   52804.9   189.4    0.00000   0.00000   0.00000   0.00000
  0-3.0A  ->  8-3.0A    6.546971   52804.9   189.4    0.00000   0.00000   0.00000   0.00000
  2-3.0A  ->  9-3.0A    6.565607   52955.2   188.8    0.00000   0.00000   0.00000   0.00000
  1-3.0A  ->  9-3.0A    6.565607   52955.2   188.8   -0.00000   0.00000   0.00000   0.00000
  2-3.0A  -> 10-3.0A    6.565612   52955.2   188.8   -0.00000   0.00000   0.00000   0.00000
  1-3.0A  -> 10-3.0A    6.565612   52955.2   188.8    0.00000   0.00000   0.00000   0.00000
  0-3.0A  ->  9-3.0A    6.565914   52957.7   188.8    0.00000   0.00000   0.00000   0.00000
  0-3.0A  -> 10-3.0A    6.565919   52957.7   188.8    0.00000   0.00000   0.00000   0.00000
  2-3.0A  -> 11-3.0A    6.584370   53106.5   188.3   -0.00000   0.00000   0.00000   0.00000
  1-3.0A  -> 11-3.0A    6.584370   53106.5   188.3   -0.00000   0.00000   0.00000   0.00000
  2-3.0A  -> 12-3.0A    6.584370   53106.5   188.3    0.00000   0.00000   0.00000   0.00000
  1-3.0A  -> 12-3.0A    6.584370   53106.5   188.3    0.00000   0.00000   0.00000   0.00000
  0-3.0A  -> 11-3.0A    6.584678   53109.0   188.3    0.00000   0.00000   0.00000   0.00000
  0-3.0A  -> 12-3.0A    6.584678   53109.0   188.3    0.00000   0.00000   0.00000   0.00000
  2-3.0A  -> 13-3.0A    6.693035   53983.0   185.2    0.00000   0.00000   0.00000   0.00000
  1-3.0A  -> 13-3.0A    6.693035   53983.0   185.2    0.00000   0.00000   0.00000   0.00000
  2-3.0A  -> 14-3.0A    6.693035   53983.0   185.2    0.00000   0.00000   0.00000   0.00000
  1-3.0A  -> 14-3.0A    6.693035   53983.0   185.2    0.00000   0.00000   0.00000   0.00000
  2-3.0A  -> 15-3.0A    6.693251   53984.7   185.2    0.00000   0.00000   0.00000   0.00000
  1-3.0A  -> 15-3.0A    6.693251   53984.7   185.2    0.00000   0.00000   0.00000   0.00000
  0-3.0A  -> 13-3.0A    6.693342   53985.5   185.2    0.00000   0.00000   0.00000   0.00000
  0-3.0A  -> 14-3.0A    6.693342   53985.5   185.2   -0.00000   0.00000   0.00000   0.00000
  0-3.0A  -> 15-3.0A    6.693559   53987.2   185.2    0.00000   0.00000   0.00000   0.00000
  2-3.0A  -> 16-3.0A    6.703855   54070.2   184.9    0.00000   0.00000   0.00000   0.00000
  1-3.0A  -> 16-3.0A    6.703855   54070.2   184.9    0.00000   0.00000   0.00000   0.00000
  2-3.0A  -> 17-3.0A    6.703855   54070.2   184.9    0.00000   0.00000   0.00000   0.00000
  1-3.0A  -> 17-3.0A    6.703855   54070.2   184.9    0.00000   0.00000   0.00000   0.00000
  0-3.0A  -> 16-3.0A    6.704163   54072.7   184.9   -0.00000   0.00000   0.00000   0.00000
  0-3.0A  -> 17-3.0A    6.704163   54072.7   184.9    0.00000   0.00000   0.00000   0.00000
  2-3.0A  -> 18-3.0A    6.704452   54075.1   184.9   -0.00000   0.00000   0.00000   0.00000
  1-3.0A  -> 18-3.0A    6.704452   54075.1   184.9    0.00000   0.00000   0.00000   0.00000
  0-3.0A  -> 18-3.0A    6.704760   54077.5   184.9   -0.00000   0.00000   0.00000   0.00000

--------------
CASSCF TIMINGS
--------------

Total time                       ...        3.0 sec
Sum of individual times          ...        4.2 sec (139.8%)

Calculation of AO operators
Calculation of MO transformed quantities
Configuration interaction steps
   CI-setup phase                ...        1.5 sec ( 49.4%)
Orbital improvement steps
Properties                       ...        1.5 sec ( 50.2%)
   SOC integral calculation      ...        0.0 sec (  0.0%)
   SSC RMEs (incl. integrals)    ...        1.2 sec ( 40.1%)
   SOC RMEs                      ...        0.0 sec (  0.1%)

Maximum memory used throughout the entire CASSCF-calculation: 33.9 MB

-------------------------   --------------------
FINAL SINGLE POINT ENERGY      -150.104508788294
-------------------------   --------------------


------------------------------------------------------------------------------
                              ORCA PROPERTY CALCULATIONS
------------------------------------------------------------------------------

GBWName                                 ... mol.gbw
Number of atoms                         ...      2
Number of basis functions               ...     62
Max core memory                         ...   1024 MB

Electric properties:
Dipole moment                           ... YES
Quadrupole moment                       ...  NO
Static polarizability (Dipole/Dipole)   ...  NO
Static polarizability (Dipole/Quad.)    ...  NO
Static polarizability (Quad./Quad.)     ...  NO
Static polarizability (Velocity)        ...  NO

Atomic electric properties:
Dipole moment                           ...  NO
Quadrupole moment                       ...  NO
Static polarizability                   ...  NO

Choice of electric origin               ... Center of mass
Position of electric origin             ...     0.000000     0.000000     1.139316

General magnetic properties:
Magnetizability                         ...  NO

EPR properties:
g-Tensor (aka g-matrix)                 ...  NO
Zero-Field splitting spin-orbit         ...  NO
Zero-field splitting spin-spin          ...  NO
Hyperfine couplings                     ...  NO (   0 nuclei)
Quadrupole couplings                    ...  NO (   0 nuclei)
Contact density                         ...  NO (   0 nuclei)

NMR properties:
Chemical shifts                         ...  NO (   0 nuclei)
Spin-rotation constants                 ...  NO (   0 nuclei)
Spin-spin couplings                     ...  NO (   0 nuclei,    0 pairs)

Choice of magnetic origin               ... GIAO
Position of magnetic origin             ...     0.000000     0.000000     0.000000

Properties with geometric perturbations:
SCF Hessian                             ...  NO
IR spectrum                             ...  NO
VCD spectrum                            ...  NO
X-ray spectroscopy properties:
SCF XES/XAS/RIXS spectra                ...  NO


-------------
DIPOLE MOMENT
-------------

Method             : CASSCF
Type of density    : Electron Density
Level              : Unrelaxed density
State              :  -1
Multiplicity       :  -1
Irrep              :   0
Energy             :  -149.5522793490874278 Eh
Relativity type    : 
Basis              : AO
                                X                 Y                 Z
Electronic contribution:     -0.000000000       0.000000000       0.000000000
Nuclear contribution   :      0.000000000       0.000000000       0.000000000
                        -----------------------------------------
Total Dipole Moment    :     -0.000000000       0.000000000       0.000000000
                        -----------------------------------------
Magnitude (a.u.)       :      0.000000000
Magnitude (Debye)      :      0.000000000



--------------------
Rotational spectrum 
--------------------
 
Rotational constants in cm-1:             0.000000             1.449384             1.449384 
Rotational constants in MHz :             0.000000         43451.442843         43451.442843 

Dipole components along the rotational axes: 
x,y,z [a.u.] :     0.000000     0.000000    -0.000000 
x,y,z [Debye]:     0.000000     0.000000    -0.000000 

 

Dipole moment calculation done in   0.0 sec 

Maximum memory used throughout the entire PROP-calculation: 5.3 MB

--------------------------------
SUGGESTED CITATIONS FOR THIS RUN
--------------------------------

Below you find a list of papers that are relevant to this ORCA run
We neither can nor want to force you to cite these papers, but we appreciate if you do
You receive ORCA, which is the product of decades of hard work by many enthusiastic individuals, for free
The only thing we kindly ask in return is that you cite our papers,
We deeply appreciate it, if you show your appreciation for ORCA by not just citing the generic ORCA reference.

Please note that relegating all ORCA citations to the supporting information does *not* help us.
SI sections are not indexed - citations you put there will not count into any citation statistics
But we need these citations in order to attract the funding resources that allow us to do what we are doing

Therefore, if you are a happy ORCA user, please consider citing a few of the papers listed below in the main body of your paper

In addition to the list printed below, the program has created the file mol.bibtex that contains the list in bibtex format
You can import this file easily into all common literature databanks and citation aid programs


List of essential papers. We consider these as the minimum necessary citations

  1. Neese,F.
     Software update: the ORCA program system, version 5.0
     WIRES Comput. Molec. Sci., 2022 12(1)e1606
     doi.org/10.1002/wcms.1606

List of papers to cite with high priority. The work reported in these papers was absolutely
necessary for this run to complete.
Our perspective: the developers of density functionals and basis sets usually get cited in chemistry papers
Good! But without the algorithms to do something with them, the functionals or basis sets would not do anything.
Hence, in our opinion, the algorithm design and method developments papers are equally worthy of getting cited

  1. Ganyushin,D.; Neese,F.
     First-principles calculations of zero-field splitting parameters
     J. Chem. Phys., 2006 125(2)Art. No. 024103
     doi.org/10.1063/1.2213976
  2. Ganyushin,D.; Gilka,N.; Taylor,P.R.; Marian,C.M.; Neese,F.
     The resolution of the identity approximation for calculations of spin-spin contribution to zero-field splitting parameters
     J. Chem. Phys., 2010 132 144111
     doi.org/10.1063/1.3367718
  3. Kollmar,C.; Sivalingam,K.; Helmich-Paris,B.; Angeli,C.; Neese,F.
     A perturbation-based super-CI approach for the orbital optimization of a CASSCF wave function
     J. Comput. Chem., 2019 40 1463-1470
     doi.org/10.1002/jcc.25801
  4. Lang,L.; Neese,F.
     Spin-dependent properties in the framework of the dynamic correlation dressed complete active space method
     J. Chem. Phys., 2019 150 
     doi.org/10.1063/1.5085203
  5. Kollmar,C.; Sivalingam,K.; Neese,F.
     An efficient implementation of the NEVPT2 and CASPT2 methods avoiding higher-order density matrices
     J. Chem. Phys., 2021 155 234104
     doi.org/10.1063/5.0072129
  6. Guo,Y.; Sivalingam,K.; Neese,F.
     Approximations of density matrices in N-electron valence state second-order perturbation theory (NEVPT2). I. Revisiting the NEVPT2 construction
     J. Chem. Phys., 2021 154 214111
  7. Neese,F.
     The SHARK Integral Generation and Digestion System
     J. Comp. Chem., 2022  1-16
     doi.org/10.1002/jcc.26942
  8. Ugandi,M.; Roemelt,M.
     A recursive formulation of one-electron coupling coefficients for spin-adapted configuration interaction calculations featuring many unpaired electrons
     Int. J. Quantum Chem., 2023 123 e27045
     doi.org/10.1002/qua.27045

List of suggested additional citations. These are papers that are important in the 'surrounding' of 
of this run, or papers that preceded the highly important papers. If you like your results we are grateful for a citation.

  1. Neese,F.
     The ORCA program system
     WIRES Comput. Molec. Sci., 2012 2(1)73-78
     doi.org/10.1002/wcms.81
  2. Schapiro,I.; Sivalingam,K.; Neese,F.
     Assessment of n-Electron Valence State Perturbation Theory for Vertical Excitation Energies
     J. Theo. Comp. Chem., 2013 9 3567-3580
     doi.org/10.1021/ct400136y
  3. Neese,F.
     Software update: the ORCA program system, version 4.0
     WIRES Comput. Molec. Sci., 2018 8(1)1-6
     doi.org/10.1002/wcms.1327
  4. Neese,F.; Wennmohs,F.; Becker,U.; Riplinger,C.
     The ORCA quantum chemistry program package
     J. Chem. Phys., 2020 152 Art. No. L224108
     doi.org/10.1063/5.0004608
  5. Guo,Y.; Sivalingam,K.; Kollmar,C.; Neese,F.
     Approximations of density matrices in N-electron valence state second-order perturbation theory (NEVPT2). II. The full rank NEVPT2 (FR-NEVPT2) formulation
     J. Chem. Phys., 2021 154 214113

List of optional additional citations

  1. Neese,F.
     Approximate second-order SCF convergence for spin unrestricted wavefunctions
     Chem. Phys. Lett., 2000 325(1-3)93-98
     doi.org/10.1016/s0009-2614(00)00662-x

Timings for individual modules:

Sum of individual times          ...       19.864 sec (=   0.331 min)
Startup calculation              ...        0.190 sec (=   0.003 min)   1.0 %
SCF iterations                   ...        0.124 sec (=   0.002 min)   0.6 %
CASSCF iterations                ...       17.534 sec (=   0.292 min)  88.3 %
Property integrals               ...        1.939 sec (=   0.032 min)   9.8 %
Property calculations            ...        0.078 sec (=   0.001 min)   0.4 %
                             ****ORCA TERMINATED NORMALLY****
TOTAL RUN TIME: 0 days 0 hours 0 minutes 19 seconds 965 msec
'mol.CASSCF_DTensor_HEFF_rotated.xyz' -> '/csnfs/users/llang/calculations/ICE_SOC_SSC/diatomics/O2/def2-TZVP/NEVPT2/mol.CASSCF_DTensor_HEFF_rotated.xyz'
'mol.NEVPT2_DTensor_HEFF_rotated.xyz' -> '/csnfs/users/llang/calculations/ICE_SOC_SSC/diatomics/O2/def2-TZVP/NEVPT2/mol.NEVPT2_DTensor_HEFF_rotated.xyz'
'mol.bibtex' -> '/csnfs/users/llang/calculations/ICE_SOC_SSC/diatomics/O2/def2-TZVP/NEVPT2/mol.bibtex'
'mol.densities' -> '/csnfs/users/llang/calculations/ICE_SOC_SSC/diatomics/O2/def2-TZVP/NEVPT2/mol.densities'
'mol.densitiesinfo' -> '/csnfs/users/llang/calculations/ICE_SOC_SSC/diatomics/O2/def2-TZVP/NEVPT2/mol.densitiesinfo'
'mol.err' -> '/csnfs/users/llang/calculations/ICE_SOC_SSC/diatomics/O2/def2-TZVP/NEVPT2/mol.err'
'mol.gbw' -> '/csnfs/users/llang/calculations/ICE_SOC_SSC/diatomics/O2/def2-TZVP/NEVPT2/mol.gbw'
'mol.job' -> '/csnfs/users/llang/calculations/ICE_SOC_SSC/diatomics/O2/def2-TZVP/NEVPT2/mol.job'
'mol.property.txt' -> '/csnfs/users/llang/calculations/ICE_SOC_SSC/diatomics/O2/def2-TZVP/NEVPT2/mol.property.txt'
cp: cannot stat 'mol.asa.inp': No such file or directory
cp: missing destination file operand after '/csnfs/users/llang/calculations/ICE_SOC_SSC/diatomics/O2/def2-TZVP/NEVPT2/'
Try 'cp --help' for more information.
cp: cannot stat 'mol.pc.tmp': No such file or directory
cp: cannot stat 'mol.QM2.pc.tmp': No such file or directory
