! Job execution by suborca V 9.37 !
Job started from head1.mpi-muelheim.mpg.de, running /hsnfs/software/orca/orca_current_directory/orca_current_20230614/orca on xe30th26.mpi-muelheim.mpg.de in /usr/scratch/llang/mol__279836 (/bin/tcsh)
Job execution start: Fri Jun 16 09:55:52 CEST 2023
Shared library path: /hsnfs/software/openmpi-4.1.0/lib:/hsnfs/software/orca/orca_current_directory/orca_current_20230614:/hsnfs/software/themis/llvm-14.0.1/lib:/hsnfs/software/orca/orca_stable:/usr/users/openmpi-2.0.4/lib:/opt/intel/lib/intel64:/opt/intel/mkl/lib/intel64
SLURM Job ID is: 279836
SLURM_JOB_NODELIST: xe30th26
Maxcore enforced by SLURM: 2048 MB
Expanded nodelist (1 nodes):
xe30th26

                                 *****************
                                 * O   R   C   A *
                                 *****************

                                            #,                                       
                                            ###                                      
                                            ####                                     
                                            #####                                    
                                            ######                                   
                                           ########,                                 
                                     ,,################,,,,,                         
                               ,,#################################,,                 
                          ,,##########################################,,             
                       ,#########################################, ''#####,          
                    ,#############################################,,   '####,        
                  ,##################################################,,,,####,       
                ,###########''''           ''''###############################       
              ,#####''   ,,,,##########,,,,          '''####'''          '####       
            ,##' ,,,,###########################,,,                        '##       
           ' ,,###''''                  '''############,,,                           
         ,,##''                                '''############,,,,        ,,,,,,###''
      ,#''                                            '''#######################'''  
     '                                                          ''''####''''         
             ,#######,   #######,   ,#######,      ##                                
            ,#'     '#,  ##    ##  ,#'     '#,    #''#        ,####,   ,####,        
            ##       ##  ##   ,#'  ##            #'  '#       #'       #'  '#        
            ##       ##  #######   ##           ,######,      #####,   #    #        
            '#,     ,#'  ##    ##  '#,     ,#' ,#      #,     #,   #   #,  ,#        
             '#######'   ##     ##  '#######'  #'      '#     '####' # '####'.alpha  



                  #######################################################
                  #                        -***-                        #
                  #          Department of theory and spectroscopy      #
                  #    Directorship and core code : Frank Neese         #
                  #        Max Planck Institute fuer Kohlenforschung    #
                  #                Kaiser Wilhelm Platz 1               #
                  #                 D-45470 Muelheim/Ruhr               #
                  #                      Germany                        #
                  #                                                     #
                  #                  All rights reserved                #
                  #                        -***-                        #
                  #######################################################


                         Program Version 5.0  -  CURRENT   -
                                (GIT: $feed972cd$)
                ($2023-06-13 17:09:58 +0200 $)

                  !                     WARNING:                         !
                  !         This is a DEVELOPMENT version                !

                         (BUILD: $Mi 14. Jun 00:07:53 CEST 2023$)


 With contributions from (in alphabetic order):
   Daniel Aravena         : Magnetic Suceptibility
   Michael Atanasov       : Ab Initio Ligand Field Theory (pilot matlab implementation)
   Alexander A. Auer      : GIAO ZORA, VPT2 properties, NMR spectrum
   Ute Becker             : Parallelization
   Giovanni Bistoni       : ED, misc. LED, open-shell LED, HFLD
   Martin Brehm           : Molecular dynamics
   Dmytro Bykov           : SCF Hessian
   Vijay G. Chilkuri      : MRCI spin determinant printing, contributions to CSF-ICE
   Dipayan Datta          : RHF DLPNO-CCSD density
   Achintya Kumar Dutta   : EOM-CC, STEOM-CC
   Dmitry Ganyushin       : Spin-Orbit,Spin-Spin,Magnetic field MRCI
   Miquel Garcia          : C-PCM and meta-GGA Hessian, CCSD/C-PCM, Gaussian charge scheme
   Yang Guo               : DLPNO-NEVPT2, F12-NEVPT2, CIM, IAO-localization
   Andreas Hansen         : Spin unrestricted coupled pair/coupled cluster methods
   Benjamin Helmich-Paris : MC-RPA, TRAH-(SCF,CASSCF), AVAS, COSX integrals, SCF dyn. polar.
   Lee Huntington         : MR-EOM, pCC
   Robert Izsak           : Overlap fitted RIJCOSX, COSX-SCS-MP3, EOM
   Marcus Kettner         : VPT2
   Christian Kollmar      : KDIIS, OOCD, Brueckner-CCSD(T), CCSD density, CASPT2, CASPT2-K, improved NEVPT2
   Simone Kossmann        : Meta GGA functionals, TD-DFT gradient, OOMP2, MP2 Hessian
   Martin Krupicka        : Initial AUTO-CI
   Lucas Lang             : DCDCAS
   Marvin Lechner         : AUTO-CI (C++ implementation), FIC-MRCC
   Dagmar Lenk            : GEPOL surface, SMD
   Dimitrios Liakos       : Extrapolation schemes; Compound Job, initial MDCI parallelization
   Dimitrios Manganas     : Further ROCIS development; embedding schemes
   Dimitrios Pantazis     : SARC Basis sets
   Anastasios Papadopoulos: AUTO-CI, single reference methods and gradients
   Taras Petrenko         : DFT Hessian,TD-DFT gradient, ASA, ECA, R-Raman, ABS, FL, XAS/XES, NRVS
   Peter Pinski           : DLPNO-MP2, DLPNO-MP2 Gradient
   Christoph Reimann      : Effective Core Potentials
   Marius Retegan         : Local ZFS, SOC
   Christoph Riplinger    : Optimizer, TS searches, QM/MM, DLPNO-CCSD(T), (RO)-DLPNO pert. Triples
   Tobias Risthaus        : Range-separated hybrids, TD-DFT gradient, RPA, STAB
   Michael Roemelt        : Original ROCIS implementation
   Masaaki Saitow         : Open-shell DLPNO-CCSD energy and density
   Barbara Sandhoefer     : DKH picture change effects
   Avijit Sen             : IP-ROCIS
   Kantharuban Sivalingam : CASSCF convergence, NEVPT2, FIC-MRCI
   Bernardo de Souza      : ESD, SOC TD-DFT
   Georgi Stoychev        : AutoAux, RI-MP2 NMR, DLPNO-MP2 response
   Willem Van den Heuvel  : Paramagnetic NMR
   Boris Wezisla          : Elementary symmetry handling
   Frank Wennmohs         : Technical directorship


 We gratefully acknowledge several colleagues who have allowed us to
 interface, adapt or use parts of their codes:
   Stefan Grimme, W. Hujo, H. Kruse, P. Pracht,  : VdW corrections, initial TS optimization,
                  C. Bannwarth, S. Ehlert          DFT functionals, gCP, sTDA/sTD-DF
   Ed Valeev, F. Pavosevic, A. Kumar             : LibInt (2-el integral package), F12 methods
   Garnet Chan, S. Sharma, J. Yang, R. Olivares  : DMRG
   Ulf Ekstrom                                   : XCFun DFT Library
   Mihaly Kallay                                 : mrcc  (arbitrary order and MRCC methods)
   Jiri Pittner, Ondrej Demel                    : Mk-CCSD
   Frank Weinhold                                : gennbo (NPA and NBO analysis)
   Christopher J. Cramer and Donald G. Truhlar   : smd solvation model
   Lars Goerigk                                  : TD-DFT with DH, B97 family of functionals
   V. Asgeirsson, H. Jonsson                     : NEB implementation
   FAccTs GmbH                                   : IRC, NEB, NEB-TS, DLPNO-Multilevel, CI-OPT
                                                   MM, QMMM, 2- and 3-layer-ONIOM, Crystal-QMMM,
                                                   LR-CPCM, SF, NACMEs, symmetry and pop. for TD-DFT,
                                                   nearIR, NL-DFT gradient (VV10), updates on ESD,
                                                   ML-optimized integration grids
   S Lehtola, MJT Oliveira, MAL Marques          : LibXC Library
   Liviu Ungur et al                             : ANISO software


 Your calculation uses the libint2 library for the computation of 2-el integrals
 For citations please refer to: http://libint.valeyev.net

 Your ORCA version has been built with support for libXC version: 5.2.2
 For citations please refer to: https://tddft.org/programs/libxc/

 This ORCA versions uses:
   CBLAS   interface :  Fast vector & matrix operations
   LAPACKE interface :  Fast linear algebra routines
   SCALAPACK package :  Parallel linear algebra routines
   Shared memory     :  Shared parallel matrices


================================================================================

----- Orbital basis set information -----
Your calculation utilizes the basis: DKH-def2-TZVP
   Exponents from def2-TZVP [F. Weigend and R. Ahlrichs, Phys. Chem. Chem. Phys. 7, 3297 (2005)],
   recontracted for DKH2 by D. A. Pantazis.

The basis set includes element-specific modifications.

Your calculation utilizes the basis: SARC-DKH-TZVP 
   Rb-Xe:  J. D. Rolfes, F. Neese and D. A. Pantazis, J. Comput. Chem. 41, 1842 (2020).
   La-Lu:  D. A. Pantazis and F. Neese, J. Chem. Theory Comput. 5, 2229 (2009).
   Hf-Hg:  D. A. Pantazis, X. Y. Chen, C. R. Landis and F. Neese, J. Chem. Theory Comput. 4, 908 (2008).
   Tl-Rn:  D. A. Pantazis and F. Neese, Theor. Chem. Acc. 131, 1292 (2012).
   Ac-Lr:  D. A. Pantazis and F. Neese, J. Chem. Theory Comput. 7, 677 (2011).

================================================================================
                                        WARNINGS
                       Please study these warnings very carefully!
================================================================================

WARNING: Old DensityContainer found on disk!
         Will remove this file - 
         If you want to keep old densities, please start your calculation with a different basename. 


INFO   : the flag for use of the SHARK integral package has been found!

================================================================================
                                       INPUT FILE
================================================================================
NAME = mol.inp
|  1> ! DKH2 DKH-def2-TZVP keepfock moread
|  2> 
|  3> %moinp "combined.gbw"
|  4> 
|  5> %pal
|  6>   nprocs 20
|  7> end
|  8> 
|  9> %scf
| 10>   rotate
| 11>     {18, 88, 90}
| 12>     {19, 89, 90}
| 13>     {20, 90, 90}
| 14>     {21, 91, 90}
| 15>     {22, 92, 90}
| 16>   end
| 17> end
| 18> 
| 19> %casscf
| 20>   nel 3
| 21>   norb 5
| 22>   mult 4,2
| 23>   nroots 10,40
| 24>   intorbs locorbs
| 25>   actorbs locorbs
| 26>   extorbs locorbs
| 27>   locmet pm
| 28>   rel
| 29>     dosoc true
| 30>     gtensor true
| 31>   end
| 32> end
| 33> 
| 34> %basis
| 35>   NewGTO Mo "SARC-DKH-TZVP" end
| 36> end
| 37> 
| 38> * xyz 0 2
| 39> Mo 0.000000 0.000000 0.000000
| 40> N 0.000000 -0.000000 2.216533
| 41> N -0.285171 0.004718 -2.279534
| 42> N 2.004311 0.474895 0.316334
| 43> N -0.518640 -1.927117 0.328953
| 44> N -1.436837 1.399372 0.350965
| 45> C 2.970024 0.928749 -0.594152
| 46> C -0.581237 -2.365423 1.743326
| 47> C -0.830393 -1.164002 2.652054
| 48> C -0.582721 1.300275 2.658544
| 49> C -1.760506 1.681705 1.765676
| 50> C -2.297164 2.076237 -0.555955
| 51> C -1.863288 3.517436 -0.893714
| 52> C 2.318314 0.721784 1.731216
| 53> C 1.427336 -0.143035 2.619678
| 54> C -0.748254 -2.988987 -0.591353
| 55> C -2.225153 -3.401980 -0.777574
| 56> C 4.230037 0.039526 -0.716681
| 57> H 3.306753 1.968583 -0.362264
| 58> H -0.884911 1.257688 3.734853
| 59> H 0.214347 2.063803 2.551589
| 60> H -1.987450 2.762476 1.926932
| 61> H -2.688755 1.130205 2.070077
| 62> H 1.560266 0.116824 3.699429
| 63> H 1.702564 -1.208656 2.481159
| 64> H -1.891664 -0.853055 2.556872
| 65> H -0.634431 -1.411885 3.724765
| 66> H -1.396483 -3.106776 1.917960
| 67> H 0.368415 -2.890826 2.024018
| 68> H -1.174880 0.491053 -2.522161
| 69> H 0.462152 0.518729 -2.788176
| 70> H -0.336996 -0.936202 -2.722830
| 71> H 2.201169 1.801001 2.006636
| 72> H 3.382951 0.463776 1.952892
| 73> H 2.515735 0.996716 -1.600586
| 74> H -3.345231 2.108265 -0.176930
| 75> H -2.372707 1.512731 -1.505640
| 76> H -0.168591 -3.895865 -0.302868
| 77> H -0.343914 -2.702078 -1.579029
| 78> H -2.820366 -2.544804 -1.127277
| 79> H -2.321620 -4.218722 -1.511452
| 80> H -2.669196 -3.751571 0.166806
| 81> H -1.822879 4.142017 0.011595
| 82> H -0.857324 3.512842 -1.339810
| 83> H -2.563100 3.993966 -1.599621
| 84> H 4.935889 0.454691 -1.454255
| 85> H 4.763546 -0.040601 0.242620
| 86> H 3.947836 -0.976362 -1.030904
| 87> *
| 88> 
| 89>                          ****END OF INPUT****
================================================================================

                       ****************************
                       * Single Point Calculation *
                       ****************************

---------------------------------
CARTESIAN COORDINATES (ANGSTROEM)
---------------------------------
  Mo     0.000000    0.000000    0.000000
  N      0.000000   -0.000000    2.216533
  N     -0.285171    0.004718   -2.279534
  N      2.004311    0.474895    0.316334
  N     -0.518640   -1.927117    0.328953
  N     -1.436837    1.399372    0.350965
  C      2.970024    0.928749   -0.594152
  C     -0.581237   -2.365423    1.743326
  C     -0.830393   -1.164002    2.652054
  C     -0.582721    1.300275    2.658544
  C     -1.760506    1.681705    1.765676
  C     -2.297164    2.076237   -0.555955
  C     -1.863288    3.517436   -0.893714
  C      2.318314    0.721784    1.731216
  C      1.427336   -0.143035    2.619678
  C     -0.748254   -2.988987   -0.591353
  C     -2.225153   -3.401980   -0.777574
  C      4.230037    0.039526   -0.716681
  H      3.306753    1.968583   -0.362264
  H     -0.884911    1.257688    3.734853
  H      0.214347    2.063803    2.551589
  H     -1.987450    2.762476    1.926932
  H     -2.688755    1.130205    2.070077
  H      1.560266    0.116824    3.699429
  H      1.702564   -1.208656    2.481159
  H     -1.891664   -0.853055    2.556872
  H     -0.634431   -1.411885    3.724765
  H     -1.396483   -3.106776    1.917960
  H      0.368415   -2.890826    2.024018
  H     -1.174880    0.491053   -2.522161
  H      0.462152    0.518729   -2.788176
  H     -0.336996   -0.936202   -2.722830
  H      2.201169    1.801001    2.006636
  H      3.382951    0.463776    1.952892
  H      2.515735    0.996716   -1.600586
  H     -3.345231    2.108265   -0.176930
  H     -2.372707    1.512731   -1.505640
  H     -0.168591   -3.895865   -0.302868
  H     -0.343914   -2.702078   -1.579029
  H     -2.820366   -2.544804   -1.127277
  H     -2.321620   -4.218722   -1.511452
  H     -2.669196   -3.751571    0.166806
  H     -1.822879    4.142017    0.011595
  H     -0.857324    3.512842   -1.339810
  H     -2.563100    3.993966   -1.599621
  H      4.935889    0.454691   -1.454255
  H      4.763546   -0.040601    0.242620
  H      3.947836   -0.976362   -1.030904

----------------------------
CARTESIAN COORDINATES (A.U.)
----------------------------
  NO LB      ZA    FRAG     MASS         X           Y           Z
   0 Mo   42.0000    0    95.940    0.000000    0.000000    0.000000
   1 N     7.0000    0    14.007    0.000000   -0.000000    4.188640
   2 N     7.0000    0    14.007   -0.538895    0.008916   -4.307695
   3 N     7.0000    0    14.007    3.787599    0.897421    0.597785
   4 N     7.0000    0    14.007   -0.980088   -3.641723    0.621631
   5 N     7.0000    0    14.007   -2.715228    2.644430    0.663228
   6 C     6.0000    0    12.011    5.612532    1.755081   -1.122785
   7 C     6.0000    0    12.011   -1.098379   -4.470002    3.294409
   8 C     6.0000    0    12.011   -1.569215   -2.199645    5.011656
   9 C     6.0000    0    12.011   -1.101183    2.457164    5.023920
  10 C     6.0000    0    12.011   -3.326874    3.177962    3.336644
  11 C     6.0000    0    12.011   -4.341011    3.923519   -1.050603
  12 C     6.0000    0    12.011   -3.521104    6.646991   -1.688875
  13 C     6.0000    0    12.011    4.380979    1.363974    3.271524
  14 C     6.0000    0    12.011    2.697274   -0.270297    4.950474
  15 C     6.0000    0    12.011   -1.413995   -5.648367   -1.117495
  16 C     6.0000    0    12.011   -4.204930   -6.428811   -1.469402
  17 C     6.0000    0    12.011    7.993611    0.074693   -1.354331
  18 H     1.0000    0     1.008    6.248858    3.720083   -0.684580
  19 H     1.0000    0     1.008   -1.672239    2.376686    7.057849
  20 H     1.0000    0     1.008    0.405057    3.900022    4.821804
  21 H     1.0000    0     1.008   -3.755736    5.220323    3.641374
  22 H     1.0000    0     1.008   -5.081011    2.135778    3.911879
  23 H     1.0000    0     1.008    2.948475    0.220765    6.990908
  24 H     1.0000    0     1.008    3.217380   -2.284029    4.688711
  25 H     1.0000    0     1.008   -3.574727   -1.612040    4.831788
  26 H     1.0000    0     1.008   -1.198901   -2.668076    7.038786
  27 H     1.0000    0     1.008   -2.638970   -5.870956    3.624419
  28 H     1.0000    0     1.008    0.696203   -5.462869    3.824840
  29 H     1.0000    0     1.008   -2.220201    0.927956   -4.766194
  30 H     1.0000    0     1.008    0.873341    0.980256   -5.268889
  31 H     1.0000    0     1.008   -0.636830   -1.769165   -5.145403
  32 H     1.0000    0     1.008    4.159607    3.403399    3.791992
  33 H     1.0000    0     1.008    6.392851    0.876410    3.690431
  34 H     1.0000    0     1.008    4.754050    1.883520   -3.024669
  35 H     1.0000    0     1.008   -6.321570    3.984043   -0.334349
  36 H     1.0000    0     1.008   -4.483766    2.858647   -2.845247
  37 H     1.0000    0     1.008   -0.318591   -7.362118   -0.572338
  38 H     1.0000    0     1.008   -0.649903   -5.106187   -2.983932
  39 H     1.0000    0     1.008   -5.329719   -4.808983   -2.130245
  40 H     1.0000    0     1.008   -4.387226   -7.972229   -2.856230
  41 H     1.0000    0     1.008   -5.044049   -7.089442    0.315218
  42 H     1.0000    0     1.008   -3.444742    7.827278    0.021911
  43 H     1.0000    0     1.008   -1.620108    6.638309   -2.531874
  44 H     1.0000    0     1.008   -4.843557    7.547502   -3.022846
  45 H     1.0000    0     1.008    9.327478    0.859241   -2.748144
  46 H     1.0000    0     1.008    9.001797   -0.076725    0.458485
  47 H     1.0000    0     1.008    7.460329   -1.845057   -1.948126

--------------------------------
INTERNAL COORDINATES (ANGSTROEM)
--------------------------------
 Mo     0   0   0     0.000000000000     0.00000000     0.00000000
 N      1   0   0     2.216533000000     0.00000000     0.00000000
 N      1   2   0     2.297307122681   172.86834441     0.00000000
 N      1   2   3     2.083951785743    81.26902123   165.72249114
 N      1   2   4     2.022616487992    80.63998886   118.39263367
 N      1   2   5     2.036152987911    80.07454658   119.18022743
 C      4   1   2     1.402700897512   129.59520586   191.68867420
 C      5   1   2     1.482053142493   116.60386069   357.68785316
 C      2   1   5     1.494701218269   106.94039068   339.55910211
 C      2   1   5     1.491862112793   107.23439182   219.20260422
 C      6   1   2     1.478472440721   116.78598216   358.97688549
 C      6   1   2     1.421552904944   130.11612627   186.09137646
 C     12   6   1     1.542525229310   114.47733928   258.48690388
 C      4   1   2     1.470184728615   112.94031639   352.87876467
 C      2   1   5     1.490058038852   105.69738900    99.34039420
 C      5   1   2     1.423816568078   130.30129276   182.86284624
 C     16   5   1     1.544821068956   115.56104660   252.99785966
 C      7   4   1     1.547049986180   115.22430325   238.06689049
 H      7   4   1     1.117324130027   111.95566365   114.39079396
 H     10   2   1     1.118737463460   110.93901652   163.70436124
 H     10   2   1     1.108932719074   106.90443279   281.52632466
 H     11   6   1     1.116052432063   111.57377631   143.60447374
 H     11   6   1     1.121810333703   110.29862468   260.61931817
 H     15   2   1     1.118507624821   110.65396947   164.94706929
 H     15   2   1     1.109272771227   107.22360725   282.88082998
 H      9   2   1     1.109974677808   106.74042539   280.67425371
 H      9   2   1     1.118282601427   110.77940484   163.12596099
 H      8   5   1     1.115673493940   112.13317535   144.85208827
 H      8   5   1     1.121015268574   109.98573932   261.99633991
 H      3   1   5     1.042579348556   109.74332724   103.57811559
 H      3   1   5     1.039911370557   113.39980002   221.39030249
 H      3   1   5     1.041406558766   115.25825843   343.69766187
 H     14   4   1     1.119950204480   112.09563598   269.34809646
 H     14   4   1     1.117658408821   110.82783466   151.31138259
 H      7   4   1     1.106303486827   109.12725219   358.84375355
 H     12   6   1     1.114957478964   111.45026845   135.31235992
 H     12   6   1     1.106863747762   110.26006480    20.32938722
 H     16   5   1     1.114298207698   110.83848742   129.57054606
 H     16   5   1     1.105129626269   108.96841869    14.96738722
 H     17  16   5     1.100600471813   110.31125239    58.81922886
 H     17  16   5     1.102247837620   111.22449752   179.33318790
 H     17  16   5     1.100564235985   111.54367923   299.33705466
 H     13  12   6     1.100599245104   111.12656910   300.12860844
 H     13  12   6     1.100448233834   109.99809842    59.17039115
 H     13  12   6     1.102325890512   111.44146218   179.94739956
 H     18   7   4     1.102090934817   110.98448483   179.50985381
 H     18   7   4     1.100595565051   111.56887406   299.34196257
 H     18   7   4     1.100182678774   110.14853464    59.05089040

---------------------------
INTERNAL COORDINATES (A.U.)
---------------------------
 Mo     0   0   0     0.000000000000     0.00000000     0.00000000
 N      1   0   0     4.188640336799     0.00000000     0.00000000
 N      1   2   0     4.341281307374   172.86834441     0.00000000
 N      1   2   3     3.938098151351    81.26902123   165.72249114
 N      1   2   4     3.822191236259    80.63998886   118.39263367
 N      1   2   5     3.847771513917    80.07454658   119.18022743
 C      4   1   2     2.650720544103   129.59520586   191.68867420
 C      5   1   2     2.800674555230   116.60386069   357.68785316
 C      2   1   5     2.824575954566   106.94039068   339.55910211
 C      2   1   5     2.819210822752   107.23439182   219.20260422
 C      6   1   2     2.793908009512   116.78598216   358.97688549
 C      6   1   2     2.686345675224   130.11612627   186.09137646
 C     12   6   1     2.914950238060   114.47733928   258.48690388
 C      4   1   2     2.778246503356   112.94031639   352.87876467
 C      2   1   5     2.815801617077   105.69738900    99.34039420
 C      5   1   2     2.690623378606   130.30129276   182.86284624
 C     16   5   1     2.919288746239   115.56104660   252.99785966
 C      7   4   1     2.923500789367   115.22430325   238.06689049
 H      7   4   1     2.111436608573   111.95566365   114.39079396
 H     10   2   1     2.114107421698   110.93901652   163.70436124
 H     10   2   1     2.095579139995   106.90443279   281.52632466
 H     11   6   1     2.109033447695   111.57377631   143.60447374
 H     11   6   1     2.119914304901   110.29862468   260.61931817
 H     15   2   1     2.113673089614   110.65396947   164.94706929
 H     15   2   1     2.096221745435   107.22360725   282.88082998
 H      9   2   1     2.097548156644   106.74042539   280.67425371
 H      9   2   1     2.113247857026   110.77940484   163.12596099
 H      8   5   1     2.108317358422   112.13317535   144.85208827
 H      8   5   1     2.118411849550   109.98573932   261.99633991
 H      3   1   5     1.970189441652   109.74332724   103.57811559
 H      3   1   5     1.965147693904   113.39980002   221.39030249
 H      3   1   5     1.967973190137   115.25825843   343.69766187
 H     14   4   1     2.116399170096   112.09563598   269.34809646
 H     14   4   1     2.112068303946   110.82783466   151.31138259
 H      7   4   1     2.090610611106   109.12725219   358.84375355
 H     12   6   1     2.106964286209   111.45026845   135.31235992
 H     12   6   1     2.091669350836   110.26006480    20.32938722
 H     16   5   1     2.105718444068   110.83848742   129.57054606
 H     16   5   1     2.088392336131   108.96841869    14.96738722
 H     17  16   5     2.079833474590   110.31125239    58.81922886
 H     17  16   5     2.082946544808   111.22449752   179.33318790
 H     17  16   5     2.079764998801   111.54367923   299.33705466
 H     13  12   6     2.079831156447   111.12656910   300.12860844
 H     13  12   6     2.079545786503   109.99809842    59.17039115
 H     13  12   6     2.083094043398   111.44146218   179.94739956
 H     18   7   4     2.082650041481   110.98448483   179.50985381
 H     18   7   4     2.079824202156   111.56887406   299.34196257
 H     18   7   4     2.079043960166   110.14853464    59.05089040

---------------------
BASIS SET INFORMATION
---------------------
There are 4 groups of distinct atoms

 Group   1 Type Mo  : 22s15p9d1f contracted to 15s10p5d1f pattern {811111111111111/6111111111/51111/1}
 Group   2 Type N   : 11s6p2d1f contracted to 6s3p2d1f pattern {611111/411/11/1}
 Group   3 Type C   : 11s6p2d1f contracted to 6s3p2d1f pattern {611111/411/11/1}
 Group   4 Type H   : 5s1p contracted to 3s1p pattern {311/1}



           ************************************************************
           *        Program running with 20 parallel MPI-processes    *
           *              working on a common directory               *
           ************************************************************
------------------------------------------------------------------------------
                           ORCA GTO INTEGRAL CALCULATION
------------------------------------------------------------------------------
------------------------------------------------------------------------------
                   ___                                                        
                  /   \      - P O W E R E D   B Y -                         
                 /     \                                                     
                 |  |  |   _    _      __       _____    __    __             
                 |  |  |  | |  | |    /  \     |  _  \  |  |  /  |          
                  \  \/   | |  | |   /    \    | | | |  |  | /  /          
                 / \  \   | |__| |  /  /\  \   | |_| |  |  |/  /          
                |  |  |   |  __  | /  /__\  \  |    /   |      \           
                |  |  |   | |  | | |   __   |  |    \   |  |\   \          
                \     /   | |  | | |  |  |  |  | |\  \  |  | \   \       
                 \___/    |_|  |_| |__|  |__|  |_| \__\ |__|  \__/        
                                                                              
                      - O R C A' S   B I G   F R I E N D -                    
                                      &                                       
                       - I N T E G R A L  F E E D E R -                       
                                                                              
 v1 FN, 2020, v2 2021                                                         
------------------------------------------------------------------------------


----------------------
SHARK INTEGRAL PACKAGE
----------------------

Number of atoms                             ...     48
Number of basis functions                   ...    801
Number of shells                            ...    355
Maximum angular momentum                    ...      3
Integral batch strategy                     ... SHARK/LIBINT Hybrid
RI-J (if used) integral strategy            ... SPLIT-RIJ (Revised 2003 algorithm where possible)
Printlevel                                  ...      1
Contraction scheme used                     ... SEGMENTED contraction
Prescreening option                         ... SCHWARTZ
   Thresh                                   ... 1.000e-10
   Tcut                                     ... 1.000e-11
   Tpresel                                  ... 1.000e-11 
Coulomb Range Separation                    ... NOT USED
Exchange Range Separation                   ... NOT USED
Finite Nucleus Model                        ... NOT USED
Auxiliary Coulomb fitting basis             ... NOT available
Auxiliary J/K fitting basis                 ... NOT available
Auxiliary Correlation fitting basis         ... NOT available
Auxiliary 'external' fitting basis          ... NOT available

Calculating pre-screening integrals         ... done (  0.1 sec) Dimension = 355
Organizing shell pair data                  ... done (  0.9 sec)
Shell pair information
Total number of shell pairs                 ...     63190
Shell pairs after pre-screening             ...     45477
Total number of primitive shell pairs       ...    161528
Primitive shell pairs kept                  ...     80816
          la=0 lb=0:  14954 shell pairs
          la=1 lb=0:  13623 shell pairs
          la=1 lb=1:   3184 shell pairs
          la=2 lb=0:   5879 shell pairs
          la=2 lb=1:   2786 shell pairs
          la=2 lb=2:    643 shell pairs
          la=3 lb=0:   2543 shell pairs
          la=3 lb=1:   1196 shell pairs
          la=3 lb=2:    549 shell pairs
          la=3 lb=3:    120 shell pairs

Calculating one electron integrals          ... done (  0.4 sec)
Calculating Nuclear repulsion               ... done (  0.0 sec) ENN=   2397.213496299911 Eh

-------------------
DFT GRID GENERATION
-------------------

General Integration Accuracy     IntAcc      ... 4.388
Radial Grid Type                 RadialGrid  ... OptM3 with GC (2021)
Angular Grid (max. ang.)         AngularGrid ... 4 (Lebedev-302)
Angular grid pruning method      GridPruning ... 4 (adaptive)
Weight generation scheme         WeightScheme... mBecke (2022)
Basis function cutoff            BFCut       ... 1.0000e-10
Integration weight cutoff        WCut        ... 1.0000e-14
Partially contracted basis set               ... off
Rotationally invariant grid construction     ... off
Angular grids for H and He will be reduced by one unit
Core-polarized basis detected: some atoms will have their core
                               angular grid increased.
Steep s-basis detected: some atoms will have their radial
                        grid points doubled.

Total number of grid points                  ...   215816
Total number of batches                      ...     3399
Average number of points per batch           ...       63
Average number of grid points per atom       ...     4496
Initializing poperty integral containers    ... done (  0.4 sec)

SHARK setup successfully completed in  11.7 seconds

Maximum memory used throughout the entire GTOINT-calculation: 111.7 MB


           ************************************************************
           *        Program running with 20 parallel MPI-processes    *
           *              working on a common directory               *
           ************************************************************
------------------------------------------------------------------------------
                          ORCA RELATIVISTIC HAMILTONIAN
------------------------------------------------------------------------------

Relativistic Method            ... DKH
Order of DKH treatment         ...   2
Treatment of potential         ... V(e,N)
Eps parameter for DKH          ...   0.00000000010000
Nucleus model                  ... Point Nucleus
Speed of light used            ... 137.03598950000000


            ************************************************
            *        DOUGLAS-KROLL-HESS HAMILTONIAN        *
            *   Programmed by FN according to literature   *
            *        procedures. Special thanks to         *
            *       B.A. Hess, M. Reiher and A. Wolf       *
            *     University Erlangen-Nuernberg/Bonn       *
            ************************************************

Uncontracting the basis (first version)        ... done
Number of contracted basis functions           ...  801
Number of uncontracted basis functions         ... 1141
Initializing the DKH file                      ... done
Calculating the relativistic integrals         ... done
Storing DKH matrices                           ... done
Code used for DKH trafo                        ... ORCA
Computing the DKH transformation               ... done
Storing the transformation variables           ... done
Transforming V and pVp to p**2 space           ... done
First transformation of V and pVp              ... done
Second transformation of Veff                  ... done
Adding kinetic energy                          ... done
Back transformation of Veff to r-space         ... done
Recovering DKH matrices                        ... done
Recontracting the H-matrix (first version)     ... done
Computing the DKH correction to the H-matrix   ... done
Reading the original H-matrix                  ... done
Adding DKH correction to the H-matrix          ... done
Storing the new modified H-matrix              ... done

Maximum memory used throughout the entire REL-calculation: 158.2 MB


           ************************************************************
           *        Program running with 20 parallel MPI-processes    *
           *              working on a common directory               *
           ************************************************************

------------------------------------------------------------------------------
                         ORCA PROPERTY INTEGRAL CALCULATIONS
------------------------------------------------------------------------------

GBWName                                   ... mol.gbw
Number of atoms                           ...     48
Number of basis functions                 ...    801
Max core memory                           ...   1024 MB

Dipole integrals                          ... YES
Quadrupole integrals                      ...  NO
Linear Momentum integrals                 ...  NO
Angular Momentum integrals                ...  NO
Higher Moments length integrals           ...  NO
Higher Moments velocity integrals         ...  NO
Kinetic energy integrals                  ...  NO
GIAO Right Hand Sides                     ...  NO
SOC integrals                             ...  NO
EPR diamagnetic integrals (GIAO)          ...  NO
EPR gauge integrals                       ...  NO
Field gradient integrals                  ...  NO (   0 nuclei)
Spin-dipole/Fermi contact integrals       ...  NO (   0 nuclei)
Nucleus-orbit integrals                   ...  NO (   0 nuclei)
Geometric perturbations                   ...  NO (  48 nuclei)
Electric origin: ( -0.0197,  0.0140,  0.7284) 
Magnetic origin: (  0.0000,  0.0000,  0.0000) 

Calculating integrals                     ... Electric Dipole (Length)     done (  0.4 sec)

Property integrals calculated in   0.4 sec

Maximum memory used throughout the entire PROPINT-calculation: 74.6 MB


           ************************************************************
           *        Program running with 20 parallel MPI-processes    *
           *              working on a common directory               *
           ************************************************************
-------------------------------------------------------------------------------
                                 ORCA SCF
-------------------------------------------------------------------------------

------------
SCF SETTINGS
------------
Hamiltonian:
 Ab initio Hamiltonian  Method          .... Hartree-Fock(GTOs)

Relativistic Settings:
 Scalar relativistic method             .... Douglas-Kroll-Hess
 Order of DKH procedure    Order        ....    2
 Mode of DKH-treatment                  .... V=V(e,N)
 Speed of light used       Velit        ....       137.035989
 Cutoff-constant           Eps          ....            1e-10 


General Settings:
 Integral files         IntName         .... mol
 Hartree-Fock type      HFTyp           .... CASSCF
 Total Charge           Charge          ....    0
 Multiplicity           Mult            ....    2
 Number of Electrons    NEL             ....  179
 Basis Dimension        Dim             ....  801
 Nuclear Repulsion      ENuc            ....   2397.2134962999 Eh


Diagonalization of the overlap matrix:
Smallest eigenvalue                        ... 8.057e-05
Time for diagonalization                   ...    0.312 sec
Threshold for overlap eigenvalues          ... 1.000e-08
Number of eigenvalues below threshold      ... 0
Time for construction of square roots      ...    0.450 sec
Total time needed                          ...    1.030 sec

---------------------
INITIAL GUESS: MOREAD
---------------------
Guess MOs are being read from file: combined.gbw
Input Geometry matches current geometry (good)
Input basis set matches current basis set (good)
MOs were renormalized
Gram-Schmidt orthogonalization of all MOs with pivot on actives
-----------------
ORBITAL ROTATIONS
-----------------
  Rotation  18(0)   88(0) cos(t)= 0.000000  sin(t)= 1.000000
  Orbital Energies were swapped
  Rotation  19(0)   89(0) cos(t)= 0.000000  sin(t)= 1.000000
  Orbital Energies were swapped
  Rotation  20(0)   90(0) cos(t)= 0.000000  sin(t)= 1.000000
  Orbital Energies were swapped
  Rotation  21(0)   91(0) cos(t)= 0.000000  sin(t)= 1.000000
  Orbital Energies were swapped
  Rotation  22(0)   92(0) cos(t)= 0.000000  sin(t)= 1.000000
  Orbital Energies were swapped
                      ------------------
                      INITIAL GUESS DONE (  23.3 sec)
                      ------------------


 ... the calculation is a CASSCF calculation -I'm leaving here GOOD LUCK!!!



           ************************************************************
           *        Program running with 20 parallel MPI-processes    *
           *              working on a common directory               *
           ************************************************************
-------------------------------------------------------------------------------
                              ORCA-CASSCF
-------------------------------------------------------------------------------

Setting up the integral package     ... done
Building the CAS space              ... done (10 configurations for Mult=4)
Building the CAS space              ... done (30 configurations for Mult=2)

SYSTEM-SPECIFIC SETTINGS:
Number of active electrons          ...    3
Number of active orbitals           ...    5
Total number of electrons           ...  179
Total number of orbitals            ...  801

Determined orbital ranges:
   Internal       0 -   87 (  88 orbitals)
   Active        88 -   92 (   5 orbitals)
   External      93 -  800 ( 708 orbitals)
Number of rotation parameters      ...  66284

CI-STEP:
CI strategy                         ... General CI
Number of multiplicity blocks       ...    2
BLOCK  0 WEIGHT=   0.5000
  Multiplicity                      ...    4
  #(Configurations)                 ...   10
  #(CSFs)                           ...   10
  #(Roots)                          ...   10
    ROOT=0 WEIGHT=    0.050000
    ROOT=1 WEIGHT=    0.050000
    ROOT=2 WEIGHT=    0.050000
    ROOT=3 WEIGHT=    0.050000
    ROOT=4 WEIGHT=    0.050000
    ROOT=5 WEIGHT=    0.050000
    ROOT=6 WEIGHT=    0.050000
    ROOT=7 WEIGHT=    0.050000
    ROOT=8 WEIGHT=    0.050000
    ROOT=9 WEIGHT=    0.050000

BLOCK  1 WEIGHT=   0.5000
  Multiplicity                      ...    2
  #(Configurations)                 ...   30
  #(CSFs)                           ...   40
  #(Roots)                          ...   40
    ROOT=0 WEIGHT=    0.012500
    ROOT=1 WEIGHT=    0.012500
    ROOT=2 WEIGHT=    0.012500
    ROOT=3 WEIGHT=    0.012500
    ROOT=4 WEIGHT=    0.012500
    ROOT=5 WEIGHT=    0.012500
    ROOT=6 WEIGHT=    0.012500
    ROOT=7 WEIGHT=    0.012500
    ROOT=8 WEIGHT=    0.012500
    ROOT=9 WEIGHT=    0.012500
    ROOT=10 WEIGHT=    0.012500
    ROOT=11 WEIGHT=    0.012500
    ROOT=12 WEIGHT=    0.012500
    ROOT=13 WEIGHT=    0.012500
    ROOT=14 WEIGHT=    0.012500
    ROOT=15 WEIGHT=    0.012500
    ROOT=16 WEIGHT=    0.012500
    ROOT=17 WEIGHT=    0.012500
    ROOT=18 WEIGHT=    0.012500
    ROOT=19 WEIGHT=    0.012500
    ROOT=20 WEIGHT=    0.012500
    ROOT=21 WEIGHT=    0.012500
    ROOT=22 WEIGHT=    0.012500
    ROOT=23 WEIGHT=    0.012500
    ROOT=24 WEIGHT=    0.012500
    ROOT=25 WEIGHT=    0.012500
    ROOT=26 WEIGHT=    0.012500
    ROOT=27 WEIGHT=    0.012500
    ROOT=28 WEIGHT=    0.012500
    ROOT=29 WEIGHT=    0.012500
    ROOT=30 WEIGHT=    0.012500
    ROOT=31 WEIGHT=    0.012500
    ROOT=32 WEIGHT=    0.012500
    ROOT=33 WEIGHT=    0.012500
    ROOT=34 WEIGHT=    0.012500
    ROOT=35 WEIGHT=    0.012500
    ROOT=36 WEIGHT=    0.012500
    ROOT=37 WEIGHT=    0.012500
    ROOT=38 WEIGHT=    0.012500
    ROOT=39 WEIGHT=    0.012500

  PrintLevel                        ...    1
  N(GuessMat)                       ...       512
  MaxDim(CI)                        ...        10
  MaxIter(CI)                       ...        64
  Energy Tolerance CI               ...  1.00e-08
  Residual Tolerance CI             ...  1.00e-08
  Shift(CI)                         ...  1.00e-04

INTEGRAL-TRANSFORMATION-STEP:
  Algorithm                         ... EXACT

ORBITAL-IMPROVEMENT-STEP:
  Algorithm                         ... SuperCI(PT)
  Default Parametrization           ... CAYLEY
  Act-Act rotations                 ... depends on algorithm used

  Note: SuperCI(PT) will ignore FreezeIE, FreezeAct and FreezeGrad. In general Default settings are encouraged.
        In conjunction with ShiftUp, ShiftDn or GradScaling the performance of SuperCI(PT) is less optimal.  

  MaxRot                            ... 2.00e-01 
  Max. no of vectors (DIIS)         ... 15
  DThresh (cut-off) metric          ... 1.00e-06
  Switch step at gradient           ...  3.00e-02 
  Switch step at iteration          ...        50   
  Switch step to                    ... SuperCI(PT)    

SCF-SETTINGS:
  Incremental                       ... on
  RIJCOSX approximation             ... off
  RI-JK approximation               ... off
  AO integral handling              ... DIRECT
  Integral Neglect Thresh           ...  1.00e-10
  Primitive cutoff TCut             ...  1.00e-11
  Energy convergence tolerance      ...  1.00e-07
  Orbital gradient convergence      ...  1.00e-03
  Max. number of iterations         ...        75  


PROPERTIES-SETTINGS:
  Spin orbit coupling               ... true
  GTensor                           ... true

FINAL ORBITALS:
  Active   Orbitals                 ... localized 
  Internal Orbitals                 ... localized 
  External Orbitals                 ... localized 

------------------
CAS-SCF ITERATIONS
------------------


MACRO-ITERATION   1: 
   --- Inactive Energy E0 = -4784.23152733 Eh
CI-ITERATION   0: 
 -4788.612374237   0.000000000004 (    0.54)
 -4788.585773871   0.000000000003
 -4788.582372131   0.000000000004
 -4788.579050922   0.000000000004
 -4788.562491877   0.000000000005
 -4788.558904768   0.000000000006
 -4788.547532023   0.000000000004
 -4788.521862242   0.000000000004
 -4788.510910361   0.000000000006
 -4788.498890618   0.000000000001
   CI-PROBLEM SOLVED
   DENSITIES MADE
CI-ITERATION   0: 
 -4788.556643084   0.000000000006 (    1.63)
 -4788.546987373   0.000000000006
 -4788.543271143   0.000000000008
 -4788.542494952   0.000000000007
 -4788.538614560   0.000000000007
 -4788.522859448   0.000000000007
 -4788.521939860   0.000000000008
 -4788.520299227   0.000000000007
 -4788.516936640   0.000000000007
 -4788.514565818   0.000000000007
 -4788.512724022   0.000000000006
 -4788.511189088   0.000000000006
 -4788.507913520   0.000000000009
 -4788.505064799   0.000000000007
 -4788.497634964   0.000000000006
 -4788.495064146   0.000000000008
 -4788.493235230   0.000000000009
 -4788.488373909   0.000000000007
 -4788.486059692   0.000000000005
 -4788.484387557   0.000000000005
 -4788.479346988   0.000000000006
 -4788.478198673   0.000000000006
 -4788.473258911   0.000000000006
 -4788.472052589   0.000000000006
 -4788.466894049   0.000000000006
 -4788.466032808   0.000000000007
 -4788.454549048   0.000000000009
 -4788.453215870   0.000000000006
 -4788.442362984   0.000000000007
 -4788.438912036   0.000000000006
 -4788.437225985   0.000000000010
 -4788.433836754   0.000000000010
 -4788.427708838   0.000000000008
 -4788.425071270   0.000000000007
 -4788.424085080   0.000000000007
 -4788.363928921   0.000000000005
 -4788.360135032   0.000000000005
 -4788.349270577   0.000000000005
 -4788.344017668   0.000000000009
 -4788.333774675   0.000000000004
   CI-PROBLEM SOLVED
   DENSITIES MADE

                 <<<<<<<<<<<<<<<<<<INITIAL CI STATE CHECK>>>>>>>>>>>>>>>>>>

BLOCK  0 MULT= 4 NROOTS=10 
ROOT   0:  E=   -4788.6123742374 Eh
      0.35829 [     9]: 00111
      0.24117 [     6]: 01110
      0.17101 [     8]: 01011
      0.07549 [     7]: 01101
      0.05672 [     2]: 11001
      0.03845 [     4]: 10101
      0.02446 [     5]: 10011
      0.02382 [     0]: 11100
      0.00987 [     1]: 11010
ROOT   1:  E=   -4788.5857738714 Eh  0.724 eV   5838.1 cm**-1
      0.45436 [     3]: 10110
      0.17856 [     8]: 01011
      0.10847 [     1]: 11010
      0.06788 [     6]: 01110
      0.06379 [     2]: 11001
      0.04186 [     9]: 00111
      0.03334 [     5]: 10011
      0.03281 [     4]: 10101
      0.01036 [     7]: 01101
      0.00857 [     0]: 11100
ROOT   2:  E=   -4788.5823721312 Eh  0.816 eV   6584.7 cm**-1
      0.43480 [     6]: 01110
      0.17994 [     5]: 10011
      0.12043 [     1]: 11010
      0.07069 [     2]: 11001
      0.06347 [     7]: 01101
      0.05978 [     8]: 01011
      0.02937 [     3]: 10110
      0.02252 [     0]: 11100
      0.01840 [     9]: 00111
ROOT   3:  E=   -4788.5790509220 Eh  0.907 eV   7313.6 cm**-1
      0.38105 [     8]: 01011
      0.13612 [     4]: 10101
      0.10933 [     9]: 00111
      0.09345 [     1]: 11010
      0.09054 [     5]: 10011
      0.06449 [     0]: 11100
      0.06198 [     6]: 01110
      0.05127 [     3]: 10110
      0.00949 [     7]: 01101
ROOT   4:  E=   -4788.5624918766 Eh  1.357 eV  10947.9 cm**-1
      0.42295 [     1]: 11010
      0.38286 [     7]: 01101
      0.07883 [     3]: 10110
      0.04515 [     4]: 10101
      0.03072 [     9]: 00111
      0.01665 [     6]: 01110
      0.00895 [     2]: 11001
      0.00792 [     5]: 10011
      0.00523 [     8]: 01011
ROOT   5:  E=   -4788.5589047680 Eh  1.455 eV  11735.2 cm**-1
      0.35494 [     4]: 10101
      0.25900 [     2]: 11001
      0.20239 [     3]: 10110
      0.12246 [     9]: 00111
      0.03281 [     7]: 01101
      0.01754 [     6]: 01110
      0.00824 [     5]: 10011
ROOT   6:  E=   -4788.5475320230 Eh  1.764 eV  14231.2 cm**-1
      0.28955 [     7]: 01101
      0.21527 [     4]: 10101
      0.15826 [     2]: 11001
      0.15089 [     9]: 00111
      0.06612 [     1]: 11010
      0.05733 [     3]: 10110
      0.03175 [     5]: 10011
      0.02014 [     6]: 01110
      0.01050 [     0]: 11100
ROOT   7:  E=   -4788.5218622415 Eh  2.463 eV  19865.1 cm**-1
      0.56627 [     5]: 10011
      0.15036 [     9]: 00111
      0.09623 [     4]: 10101
      0.08194 [     6]: 01110
      0.03577 [     7]: 01101
      0.03111 [     2]: 11001
      0.02286 [     1]: 11010
      0.00922 [     3]: 10110
      0.00466 [     0]: 11100
ROOT   8:  E=   -4788.5109103611 Eh  2.761 eV  22268.7 cm**-1
      0.34826 [     2]: 11001
      0.15158 [     1]: 11010
      0.14200 [     8]: 01011
      0.10175 [     3]: 10110
      0.08864 [     7]: 01101
      0.07582 [     4]: 10101
      0.04745 [     5]: 10011
      0.02170 [     0]: 11100
      0.01871 [     6]: 01110
      0.00408 [     9]: 00111
ROOT   9:  E=   -4788.4988906182 Eh  3.088 eV  24906.8 cm**-1
      0.84172 [     0]: 11100
      0.05949 [     8]: 01011
      0.03919 [     6]: 01110
      0.01477 [     3]: 10110
      0.01360 [     9]: 00111
      0.01157 [     7]: 01101
      0.01009 [     5]: 10011
      0.00460 [     4]: 10101
      0.00403 [     1]: 11010

BLOCK  1 MULT= 2 NROOTS=40 
ROOT   0:  E=   -4788.5566430840 Eh
      0.31262 [    25]: 00120
      0.23258 [    20]: 01020
      0.10049 [     6]: 11010
      0.09673 [    11]: 10020
      0.05743 [     9]: 10110
      0.04823 [    26]: 00111
      0.03622 [    21]: 01011
      0.01591 [    19]: 01101
      0.01497 [     2]: 20010
      0.01449 [    12]: 10011
      0.01147 [    14]: 02100
      0.01099 [    27]: 00102
      0.01034 [     7]: 11001
      0.00807 [    17]: 01200
      0.00737 [    10]: 10101
      0.00545 [    22]: 01002
      0.00469 [    24]: 00201
      0.00296 [    18]: 01110
      0.00295 [    15]: 02010
      0.00257 [    16]: 02001
ROOT   1:  E=   -4788.5469873732 Eh  0.263 eV   2119.2 cm**-1
      0.31513 [    18]: 01110
      0.16425 [    23]: 00210
      0.10276 [     9]: 10110
      0.06185 [    29]: 00012
      0.04864 [    21]: 01011
      0.04654 [    15]: 02010
      0.04329 [     5]: 11100
      0.03508 [     6]: 11010
      0.02291 [    22]: 01002
      0.01813 [    20]: 01020
      0.01521 [    13]: 10002
      0.01517 [    28]: 00021
      0.01517 [     8]: 10200
      0.01474 [     4]: 12000
      0.01184 [    25]: 00120
      0.01134 [    17]: 01200
      0.01101 [    26]: 00111
      0.00932 [    12]: 10011
      0.00880 [    14]: 02100
      0.00788 [     7]: 11001
      0.00661 [    11]: 10020
      0.00439 [     0]: 21000
      0.00329 [    27]: 00102
      0.00316 [    16]: 02001
ROOT   2:  E=   -4788.5432711431 Eh  0.364 eV   2934.8 cm**-1
      0.20393 [    21]: 01011
      0.13040 [    18]: 01110
      0.12869 [    25]: 00120
      0.06233 [    26]: 00111
      0.05369 [    28]: 00021
      0.05019 [    19]: 01101
      0.05016 [     7]: 11001
      0.04407 [     6]: 11010
      0.04303 [    20]: 01020
      0.03841 [    15]: 02010
      0.03331 [    24]: 00201
      0.02782 [    10]: 10101
      0.02657 [    27]: 00102
      0.01981 [    12]: 10011
      0.01774 [    11]: 10020
      0.01525 [    17]: 01200
      0.01411 [     9]: 10110
      0.00791 [     5]: 11100
      0.00664 [    16]: 02001
      0.00625 [    22]: 01002
      0.00589 [    14]: 02100
      0.00476 [     4]: 12000
      0.00326 [    13]: 10002
ROOT   3:  E=   -4788.5424949517 Eh  0.385 eV   3105.2 cm**-1
      0.32040 [    26]: 00111
      0.14682 [    20]: 01020
      0.06552 [    12]: 10011
      0.06225 [    18]: 01110
      0.05088 [     6]: 11010
      0.04219 [    19]: 01101
      0.03880 [    24]: 00201
      0.03180 [    23]: 00210
      0.02949 [    27]: 00102
      0.02793 [    28]: 00021
      0.02689 [    21]: 01011
      0.02076 [    22]: 01002
      0.01879 [     9]: 10110
      0.01521 [    11]: 10020
      0.01440 [    16]: 02001
      0.01323 [    17]: 01200
      0.01235 [     3]: 20001
      0.01118 [     7]: 11001
      0.00935 [    25]: 00120
      0.00879 [    15]: 02010
      0.00778 [    14]: 02100
      0.00702 [    10]: 10101
      0.00425 [     1]: 20100
      0.00348 [     4]: 12000
      0.00296 [     0]: 21000
      0.00257 [     5]: 11100
ROOT   4:  E=   -4788.5386145601 Eh  0.491 eV   3956.8 cm**-1
      0.24538 [    26]: 00111
      0.15875 [    21]: 01011
      0.12515 [    23]: 00210
      0.08364 [    15]: 02010
      0.08040 [    18]: 01110
      0.06128 [    10]: 10101
      0.04617 [    16]: 02001
      0.03107 [     5]: 11100
      0.02643 [     4]: 12000
      0.02503 [     9]: 10110
      0.02457 [    19]: 01101
      0.02407 [    24]: 00201
      0.02175 [     7]: 11001
      0.01846 [    12]: 10011
      0.00677 [     3]: 20001
      0.00435 [    17]: 01200
      0.00375 [     6]: 11010
      0.00320 [    28]: 00021
      0.00292 [    14]: 02100
      0.00252 [    25]: 00120
ROOT   5:  E=   -4788.5228594482 Eh  0.919 eV   7414.7 cm**-1
      0.27910 [     9]: 10110
      0.11692 [    19]: 01101
      0.09097 [     6]: 11010
      0.08280 [    21]: 01011
      0.07907 [    10]: 10101
      0.06953 [    18]: 01110
      0.06733 [     7]: 11001
      0.05180 [    25]: 00120
      0.04162 [    28]: 00021
      0.02278 [    24]: 00201
      0.02045 [     1]: 20100
      0.01715 [    29]: 00012
      0.01149 [    12]: 10011
      0.01057 [    23]: 00210
      0.00949 [     0]: 21000
      0.00640 [     5]: 11100
      0.00503 [    26]: 00111
      0.00355 [    15]: 02010
      0.00315 [     2]: 20010
      0.00276 [    14]: 02100
ROOT   6:  E=   -4788.5219398602 Eh  0.944 eV   7616.5 cm**-1
      0.21969 [    20]: 01020
      0.17360 [     9]: 10110
      0.09341 [    28]: 00021
      0.06949 [    10]: 10101
      0.05230 [    16]: 02001
      0.04833 [    26]: 00111
      0.04184 [     2]: 20010
      0.04131 [    11]: 10020
      0.03696 [    12]: 10011
      0.02273 [     0]: 21000
      0.02152 [     7]: 11001
      0.02132 [    18]: 01110
      0.02057 [     6]: 11010
      0.01788 [    22]: 01002
      0.01717 [    25]: 00120
      0.01504 [    15]: 02010
      0.01409 [     1]: 20100
      0.01315 [     4]: 12000
      0.01223 [    23]: 00210
      0.00981 [    21]: 01011
      0.00728 [    27]: 00102
      0.00709 [    19]: 01101
      0.00705 [    17]: 01200
      0.00608 [    13]: 10002
      0.00511 [    24]: 00201
      0.00375 [    14]: 02100
ROOT   7:  E=   -4788.5202992274 Eh  0.989 eV   7976.6 cm**-1
      0.14051 [    15]: 02010
      0.10857 [    25]: 00120
      0.09796 [    27]: 00102
      0.09642 [    19]: 01101
      0.08001 [    12]: 10011
      0.05095 [    26]: 00111
      0.04477 [    18]: 01110
      0.04474 [     1]: 20100
      0.04460 [     2]: 20010
      0.03075 [     6]: 11010
      0.02816 [    22]: 01002
      0.02755 [    21]: 01011
      0.02736 [     9]: 10110
      0.02619 [    23]: 00210
      0.02438 [    14]: 02100
      0.02307 [    20]: 01020
      0.01819 [     8]: 10200
      0.01366 [    11]: 10020
      0.01201 [    24]: 00201
      0.01158 [    10]: 10101
      0.01041 [     5]: 11100
      0.00938 [    28]: 00021
      0.00825 [     0]: 21000
      0.00651 [     3]: 20001
      0.00463 [     4]: 12000
      0.00404 [     7]: 11001
      0.00288 [    13]: 10002
ROOT   8:  E=   -4788.5169366401 Eh  1.080 eV   8714.6 cm**-1
      0.20766 [    21]: 01011
      0.19910 [    19]: 01101
      0.19124 [    24]: 00201
      0.05594 [     9]: 10110
      0.05461 [    17]: 01200
      0.05338 [    26]: 00111
      0.05246 [     6]: 11010
      0.03130 [    25]: 00120
      0.02812 [    12]: 10011
      0.01899 [    28]: 00021
      0.01506 [    11]: 10020
      0.01245 [     7]: 11001
      0.01228 [    20]: 01020
      0.01081 [    16]: 02001
      0.01037 [     3]: 20001
      0.00969 [    10]: 10101
      0.00864 [    14]: 02100
      0.00523 [     2]: 20010
      0.00478 [    18]: 01110
      0.00456 [    15]: 02010
      0.00426 [    27]: 00102
      0.00407 [     1]: 20100
ROOT   9:  E=   -4788.5145658181 Eh  1.145 eV   9234.9 cm**-1
      0.20828 [    11]: 10020
      0.16884 [    18]: 01110
      0.10667 [    22]: 01002
      0.10144 [    26]: 00111
      0.09104 [    12]: 10011
      0.06774 [    21]: 01011
      0.06187 [     9]: 10110
      0.03539 [     7]: 11001
      0.03336 [    19]: 01101
      0.02803 [    27]: 00102
      0.02154 [    29]: 00012
      0.01833 [     8]: 10200
      0.01121 [    25]: 00120
      0.01117 [     5]: 11100
      0.00769 [     4]: 12000
      0.00663 [     3]: 20001
      0.00557 [    13]: 10002
      0.00380 [    16]: 02001
      0.00352 [    17]: 01200
ROOT  10:  E=   -4788.5127240218 Eh  1.195 eV   9639.1 cm**-1
      0.13412 [    15]: 02010
      0.10464 [    12]: 10011
      0.09186 [    18]: 01110
      0.08478 [    25]: 00120
      0.07391 [    29]: 00012
      0.06579 [    10]: 10101
      0.05888 [     7]: 11001
      0.05480 [    13]: 10002
      0.05475 [    26]: 00111
      0.03685 [    23]: 00210
      0.02964 [    20]: 01020
      0.02837 [    27]: 00102
      0.02602 [     4]: 12000
      0.02586 [    22]: 01002
      0.02439 [    21]: 01011
      0.02302 [     9]: 10110
      0.01923 [    24]: 00201
      0.01309 [     6]: 11010
      0.01122 [     5]: 11100
      0.00922 [    11]: 10020
      0.00777 [     3]: 20001
      0.00670 [     2]: 20010
      0.00544 [    19]: 01101
      0.00532 [    28]: 00021
      0.00276 [    16]: 02001
ROOT  11:  E=   -4788.5111890879 Eh  1.237 eV   9976.0 cm**-1
      0.20088 [    27]: 00102
      0.11495 [    15]: 02010
      0.10611 [    21]: 01011
      0.08724 [    18]: 01110
      0.08142 [     9]: 10110
      0.07908 [    19]: 01101
      0.06367 [     6]: 11010
      0.04160 [    16]: 02001
      0.02965 [    22]: 01002
      0.02660 [     8]: 10200
      0.02226 [    23]: 00210
      0.02052 [     5]: 11100
      0.02011 [    24]: 00201
      0.01994 [     2]: 20010
      0.01977 [    12]: 10011
      0.01888 [    28]: 00021
      0.01585 [    20]: 01020
      0.00717 [    10]: 10101
      0.00653 [    13]: 10002
      0.00525 [    17]: 01200
      0.00423 [     3]: 20001
      0.00419 [    26]: 00111
ROOT  12:  E=   -4788.5079135199 Eh  1.326 eV  10694.9 cm**-1
      0.21384 [    23]: 00210
      0.15338 [     6]: 11010
      0.10837 [    10]: 10101
      0.09304 [    21]: 01011
      0.07254 [    22]: 01002
      0.05975 [     7]: 11001
      0.03997 [    29]: 00012
      0.03184 [     2]: 20010
      0.03024 [    18]: 01110
      0.02231 [    12]: 10011
      0.02028 [    17]: 01200
      0.01961 [    28]: 00021
      0.01945 [    15]: 02010
      0.01519 [    16]: 02001
      0.01514 [     0]: 21000
      0.01495 [    11]: 10020
      0.01471 [    19]: 01101
      0.01300 [     3]: 20001
      0.00923 [     4]: 12000
      0.00828 [     8]: 10200
      0.00666 [     5]: 11100
      0.00552 [    24]: 00201
      0.00295 [    25]: 00120
      0.00271 [    26]: 00111
      0.00263 [    14]: 02100
      0.00251 [     9]: 10110
ROOT  13:  E=   -4788.5050647992 Eh  1.404 eV  11320.1 cm**-1
      0.16433 [    21]: 01011
      0.15324 [    26]: 00111
      0.10795 [     7]: 11001
      0.09486 [    12]: 10011
      0.07124 [    24]: 00201
      0.06208 [    29]: 00012
      0.05607 [    27]: 00102
      0.03537 [    14]: 02100
      0.03030 [    10]: 10101
      0.02611 [     8]: 10200
      0.02433 [     9]: 10110
      0.02276 [    13]: 10002
      0.02244 [    18]: 01110
      0.02106 [    22]: 01002
      0.02033 [     6]: 11010
      0.01914 [    28]: 00021
      0.01387 [     4]: 12000
      0.00714 [    15]: 02010
      0.00706 [     2]: 20010
      0.00617 [     1]: 20100
      0.00611 [     5]: 11100
      0.00553 [    17]: 01200
      0.00500 [    23]: 00210
      0.00382 [    25]: 00120
      0.00366 [    20]: 01020
      0.00357 [    19]: 01101
      0.00326 [    16]: 02001
      0.00306 [     0]: 21000
ROOT  14:  E=   -4788.4976349638 Eh  1.606 eV  12950.8 cm**-1
      0.15064 [     5]: 11100
      0.14548 [     8]: 10200
      0.12320 [    16]: 02001
      0.09120 [    18]: 01110
      0.08382 [    19]: 01101
      0.06583 [    24]: 00201
      0.05266 [    17]: 01200
      0.03093 [    23]: 00210
      0.02988 [     4]: 12000
      0.02682 [     6]: 11010
      0.02671 [    27]: 00102
      0.02481 [    12]: 10011
      0.02433 [     7]: 11001
      0.01815 [    21]: 01011
      0.01798 [    26]: 00111
      0.01740 [    13]: 10002
      0.01681 [    11]: 10020
      0.01441 [     9]: 10110
      0.01292 [    10]: 10101
      0.00823 [     1]: 20100
      0.00633 [    20]: 01020
      0.00404 [    28]: 00021
      0.00299 [    29]: 00012
ROOT  15:  E=   -4788.4950641464 Eh  1.676 eV  13515.0 cm**-1
      0.17560 [    11]: 10020
      0.10162 [    24]: 00201
      0.08391 [    12]: 10011
      0.07695 [    19]: 01101
      0.06500 [    16]: 02001
      0.06230 [    13]: 10002
      0.05027 [    26]: 00111
      0.04972 [     6]: 11010
      0.04969 [    27]: 00102
      0.04721 [    22]: 01002
      0.04419 [    14]: 02100
      0.03759 [     7]: 11001
      0.03304 [    20]: 01020
      0.02041 [    25]: 00120
      0.01638 [    18]: 01110
      0.01634 [    21]: 01011
      0.01400 [     4]: 12000
      0.01321 [     9]: 10110
      0.01054 [    17]: 01200
      0.00810 [     0]: 21000
      0.00748 [     1]: 20100
      0.00421 [    10]: 10101
      0.00414 [     8]: 10200
      0.00251 [    28]: 00021
ROOT  16:  E=   -4788.4932352296 Eh  1.725 eV  13916.4 cm**-1
      0.23014 [    19]: 01101
      0.12155 [     6]: 11010
      0.11578 [    26]: 00111
      0.11031 [    13]: 10002
      0.08310 [    12]: 10011
      0.06510 [    16]: 02001
      0.04430 [    18]: 01110
      0.02686 [     9]: 10110
      0.02622 [    10]: 10101
      0.02585 [    27]: 00102
      0.02441 [    14]: 02100
      0.02228 [     7]: 11001
      0.01870 [     4]: 12000
      0.01634 [    24]: 00201
      0.01407 [     5]: 11100
      0.01003 [    23]: 00210
      0.00795 [     8]: 10200
      0.00748 [    20]: 01020
      0.00653 [     3]: 20001
      0.00506 [     0]: 21000
      0.00434 [     2]: 20010
      0.00391 [     1]: 20100
      0.00312 [    17]: 01200
      0.00262 [    22]: 01002
ROOT  17:  E=   -4788.4883739088 Eh  1.858 eV  14983.4 cm**-1
      0.19424 [    22]: 01002
      0.19073 [    10]: 10101
      0.08632 [    19]: 01101
      0.07233 [    26]: 00111
      0.06119 [    21]: 01011
      0.05168 [    13]: 10002
      0.05089 [     7]: 11001
      0.04946 [    18]: 01110
      0.03592 [    16]: 02001
      0.02525 [     6]: 11010
      0.02127 [    27]: 00102
      0.01941 [    28]: 00021
      0.01763 [     5]: 11100
      0.01523 [     9]: 10110
      0.01499 [    20]: 01020
      0.01337 [    12]: 10011
      0.01295 [    15]: 02010
      0.01279 [     3]: 20001
      0.01166 [    17]: 01200
      0.01035 [    29]: 00012
      0.00982 [     4]: 12000
      0.00916 [    23]: 00210
      0.00536 [    25]: 00120
      0.00346 [    11]: 10020
ROOT  18:  E=   -4788.4860596915 Eh  1.921 eV  15491.3 cm**-1
      0.32107 [    10]: 10101
      0.08173 [     9]: 10110
      0.07297 [     6]: 11010
      0.06538 [    16]: 02001
      0.06321 [    19]: 01101
      0.05163 [    23]: 00210
      0.04854 [    28]: 00021
      0.04850 [     7]: 11001
      0.04672 [    21]: 01011
      0.03460 [     3]: 20001
      0.03185 [    22]: 01002
      0.03008 [    18]: 01110
      0.01966 [    12]: 10011
      0.01856 [     4]: 12000
      0.01626 [    20]: 01020
      0.00996 [     1]: 20100
      0.00978 [    17]: 01200
      0.00722 [    24]: 00201
      0.00544 [     2]: 20010
      0.00508 [    26]: 00111
      0.00360 [    25]: 00120
      0.00337 [     5]: 11100
ROOT  19:  E=   -4788.4843875571 Eh  1.966 eV  15858.3 cm**-1
      0.24519 [     6]: 11010
      0.10239 [    18]: 01110
      0.09886 [     2]: 20010
      0.07776 [     0]: 21000
      0.06095 [    26]: 00111
      0.05724 [     9]: 10110
      0.05638 [     7]: 11001
      0.04926 [    20]: 01020
      0.04257 [     3]: 20001
      0.03885 [    23]: 00210
      0.03657 [    10]: 10101
      0.03615 [    19]: 01101
      0.02380 [    27]: 00102
      0.01736 [    22]: 01002
      0.00870 [    15]: 02010
      0.00814 [    12]: 10011
      0.00775 [    16]: 02001
      0.00754 [    24]: 00201
      0.00752 [    13]: 10002
      0.00521 [     8]: 10200
      0.00262 [     5]: 11100
      0.00252 [    11]: 10020
ROOT  20:  E=   -4788.4793469881 Eh  2.103 eV  16964.5 cm**-1
      0.13248 [    13]: 10002
      0.10306 [     6]: 11010
      0.08134 [    18]: 01110
      0.07716 [    12]: 10011
      0.07366 [     3]: 20001
      0.06734 [    14]: 02100
      0.06254 [    24]: 00201
      0.04662 [    25]: 00120
      0.04613 [    27]: 00102
      0.04570 [     9]: 10110
      0.04359 [     8]: 10200
      0.03885 [    19]: 01101
      0.02895 [     1]: 20100
      0.01591 [    10]: 10101
      0.01575 [    28]: 00021
      0.01531 [     5]: 11100
      0.01463 [    16]: 02001
      0.01365 [     7]: 11001
      0.01309 [    11]: 10020
      0.01164 [    26]: 00111
      0.01142 [    29]: 00012
      0.01027 [    21]: 01011
      0.01004 [     4]: 12000
      0.00638 [     2]: 20010
      0.00587 [    20]: 01020
      0.00385 [    15]: 02010
ROOT  21:  E=   -4788.4781986728 Eh  2.135 eV  17216.6 cm**-1
      0.15611 [    15]: 02010
      0.14842 [    21]: 01011
      0.14323 [     9]: 10110
      0.08134 [    10]: 10101
      0.06008 [    27]: 00102
      0.05067 [    22]: 01002
      0.04848 [    18]: 01110
      0.04808 [     5]: 11100
      0.03032 [     7]: 11001
      0.03020 [     6]: 11010
      0.03006 [     1]: 20100
      0.02403 [    12]: 10011
      0.02202 [    19]: 01101
      0.02172 [    28]: 00021
      0.02083 [     8]: 10200
      0.02034 [    24]: 00201
      0.01194 [     3]: 20001
      0.01108 [    20]: 01020
      0.00937 [    26]: 00111
      0.00680 [    13]: 10002
      0.00584 [    25]: 00120
      0.00483 [     4]: 12000
      0.00445 [    17]: 01200
      0.00438 [    29]: 00012
ROOT  22:  E=   -4788.4732589113 Eh  2.269 eV  18300.7 cm**-1
      0.15190 [     7]: 11001
      0.11006 [    28]: 00021
      0.07726 [    19]: 01101
      0.07657 [     9]: 10110
      0.07400 [    10]: 10101
      0.06895 [     8]: 10200
      0.06045 [     6]: 11010
      0.05160 [    22]: 01002
      0.04952 [    16]: 02001
      0.03973 [    14]: 02100
      0.03659 [     5]: 11100
      0.03171 [    23]: 00210
      0.03079 [     4]: 12000
      0.02946 [    29]: 00012
      0.02946 [    24]: 00201
      0.01843 [    21]: 01011
      0.01791 [    27]: 00102
      0.01504 [    25]: 00120
      0.00701 [    11]: 10020
      0.00574 [    18]: 01110
      0.00535 [    13]: 10002
      0.00285 [    17]: 01200
ROOT  23:  E=   -4788.4720525893 Eh  2.302 eV  18565.5 cm**-1
      0.25376 [    12]: 10011
      0.09745 [    26]: 00111
      0.09342 [     1]: 20100
      0.08803 [    10]: 10101
      0.07536 [     9]: 10110
      0.05804 [     6]: 11010
      0.05384 [     0]: 21000
      0.04652 [     7]: 11001
      0.04172 [     2]: 20010
      0.02855 [    18]: 01110
      0.02350 [    19]: 01101
      0.02275 [    13]: 10002
      0.02112 [     5]: 11100
      0.01525 [    28]: 00021
      0.01241 [    17]: 01200
      0.01196 [     4]: 12000
      0.01185 [     3]: 20001
      0.01153 [    23]: 00210
      0.01112 [    14]: 02100
      0.00516 [    21]: 01011
      0.00464 [    25]: 00120
      0.00461 [    15]: 02010
ROOT  24:  E=   -4788.4668940491 Eh  2.442 eV  19697.6 cm**-1
      0.21636 [     2]: 20010
      0.14943 [     5]: 11100
      0.09565 [     3]: 20001
      0.08673 [    10]: 10101
      0.07281 [    17]: 01200
      0.06203 [     7]: 11001
      0.05875 [    29]: 00012
      0.05425 [    12]: 10011
      0.03442 [     9]: 10110
      0.02722 [    19]: 01101
      0.02447 [     6]: 11010
      0.02043 [    26]: 00111
      0.02014 [    11]: 10020
      0.01419 [    22]: 01002
      0.01077 [    21]: 01011
      0.00845 [    23]: 00210
      0.00826 [    27]: 00102
      0.00654 [    18]: 01110
      0.00609 [     1]: 20100
      0.00562 [     8]: 10200
      0.00318 [    15]: 02010
      0.00302 [    28]: 00021
      0.00268 [    24]: 00201
ROOT  25:  E=   -4788.4660328083 Eh  2.466 eV  19886.7 cm**-1
      0.18566 [     7]: 11001
      0.15131 [    12]: 10011
      0.14255 [    13]: 10002
      0.08399 [     9]: 10110
      0.07233 [    26]: 00111
      0.07035 [     3]: 20001
      0.03600 [    18]: 01110
      0.03537 [     8]: 10200
      0.03523 [    10]: 10101
      0.03385 [    29]: 00012
      0.02169 [     6]: 11010
      0.02048 [     1]: 20100
      0.01908 [    15]: 02010
      0.01786 [    21]: 01011
      0.01418 [    16]: 02001
      0.01368 [    19]: 01101
      0.00719 [     2]: 20010
      0.00663 [    25]: 00120
      0.00655 [    23]: 00210
      0.00632 [    14]: 02100
      0.00621 [     0]: 21000
      0.00520 [     5]: 11100
ROOT  26:  E=   -4788.4545490485 Eh  2.778 eV  22407.1 cm**-1
      0.14927 [     7]: 11001
      0.12917 [    18]: 01110
      0.12225 [     5]: 11100
      0.08163 [    12]: 10011
      0.07371 [     3]: 20001
      0.06394 [    19]: 01101
      0.04459 [    10]: 10101
      0.04148 [     2]: 20010
      0.03399 [    21]: 01011
      0.03248 [     9]: 10110
      0.02858 [    24]: 00201
      0.02757 [     6]: 11010
      0.02755 [    26]: 00111
      0.02647 [     0]: 21000
      0.02352 [    16]: 02001
      0.01643 [     4]: 12000
      0.01266 [    17]: 01200
      0.01132 [     1]: 20100
      0.01035 [    22]: 01002
      0.00992 [    15]: 02010
      0.00689 [    13]: 10002
      0.00647 [    29]: 00012
      0.00470 [    23]: 00210
      0.00412 [    11]: 10020
      0.00381 [    14]: 02100
      0.00274 [    25]: 00120
ROOT  27:  E=   -4788.4532158704 Eh  2.814 eV  22699.6 cm**-1
      0.13347 [    10]: 10101
      0.12583 [     3]: 20001
      0.08968 [     9]: 10110
      0.08525 [     7]: 11001
      0.08448 [    16]: 02001
      0.08201 [    29]: 00012
      0.06416 [    28]: 00021
      0.05626 [    12]: 10011
      0.03313 [     2]: 20010
      0.03210 [     4]: 12000
      0.03161 [     1]: 20100
      0.03017 [    21]: 01011
      0.02949 [     6]: 11010
      0.02085 [    26]: 00111
      0.01947 [     0]: 21000
      0.01246 [     8]: 10200
      0.01126 [    19]: 01101
      0.01080 [    13]: 10002
      0.00898 [    22]: 01002
      0.00749 [    15]: 02010
      0.00664 [    11]: 10020
      0.00663 [    27]: 00102
      0.00541 [    18]: 01110
      0.00312 [    20]: 01020
      0.00292 [    14]: 02100
      0.00259 [    24]: 00201
ROOT  28:  E=   -4788.4423629841 Eh  3.110 eV  25081.6 cm**-1
      0.23738 [    19]: 01101
      0.12215 [    11]: 10020
      0.09564 [     7]: 11001
      0.09411 [     9]: 10110
      0.07271 [     6]: 11010
      0.06263 [    21]: 01011
      0.06172 [    27]: 00102
      0.05713 [    12]: 10011
      0.05145 [    13]: 10002
      0.03386 [    18]: 01110
      0.02111 [     0]: 21000
      0.02092 [    25]: 00120
      0.01854 [     1]: 20100
      0.01363 [    17]: 01200
      0.00849 [    28]: 00021
      0.00632 [    14]: 02100
      0.00571 [    20]: 01020
      0.00567 [    26]: 00111
      0.00268 [    24]: 00201
      0.00254 [    10]: 10101
ROOT  29:  E=   -4788.4389120356 Eh  3.204 eV  25839.0 cm**-1
      0.25785 [     7]: 11001
      0.14340 [    10]: 10101
      0.13899 [     6]: 11010
      0.09500 [     5]: 11100
      0.07714 [    26]: 00111
      0.03824 [    11]: 10020
      0.03255 [    16]: 02001
      0.03071 [    18]: 01110
      0.02026 [    23]: 00210
      0.01951 [    12]: 10011
      0.01895 [     3]: 20001
      0.01663 [    20]: 01020
      0.01530 [    17]: 01200
      0.01360 [     9]: 10110
      0.01343 [    19]: 01101
      0.01194 [    21]: 01011
      0.01058 [    22]: 01002
      0.00903 [    27]: 00102
      0.00818 [     8]: 10200
      0.00734 [     4]: 12000
      0.00631 [    24]: 00201
      0.00387 [     2]: 20010
      0.00311 [    13]: 10002
ROOT  30:  E=   -4788.4372259852 Eh  3.250 eV  26209.0 cm**-1
      0.21712 [    17]: 01200
      0.21615 [     5]: 11100
      0.12913 [     0]: 21000
      0.10241 [    14]: 02100
      0.04789 [     1]: 20100
      0.04615 [    29]: 00012
      0.03715 [    18]: 01110
      0.03062 [     3]: 20001
      0.02143 [    21]: 01011
      0.01917 [    28]: 00021
      0.01878 [     6]: 11010
      0.01771 [    19]: 01101
      0.01658 [     9]: 10110
      0.01136 [     4]: 12000
      0.01032 [    24]: 00201
      0.01031 [     7]: 11001
      0.00934 [    16]: 02001
      0.00551 [    23]: 00210
      0.00514 [    26]: 00111
      0.00433 [    20]: 01020
      0.00385 [    13]: 10002
      0.00372 [    12]: 10011
      0.00347 [     2]: 20010
      0.00290 [    15]: 02010
      0.00269 [    10]: 10101
ROOT  31:  E=   -4788.4338367540 Eh  3.342 eV  26952.9 cm**-1
      0.12922 [     5]: 11100
      0.12700 [     8]: 10200
      0.09419 [    21]: 01011
      0.08974 [    14]: 02100
      0.08313 [     1]: 20100
      0.06958 [     4]: 12000
      0.04654 [     0]: 21000
      0.04496 [    29]: 00012
      0.04159 [    19]: 01101
      0.03900 [    28]: 00021
      0.03260 [    18]: 01110
      0.03250 [     6]: 11010
      0.02479 [     7]: 11001
      0.02157 [     2]: 20010
      0.02044 [    17]: 01200
      0.02021 [    10]: 10101
      0.01611 [     9]: 10110
      0.01393 [    26]: 00111
      0.01302 [     3]: 20001
      0.01101 [    15]: 02010
      0.00970 [    22]: 01002
      0.00866 [    12]: 10011
      0.00447 [    16]: 02001
ROOT  32:  E=   -4788.4277088380 Eh  3.508 eV  28297.8 cm**-1
      0.23233 [     5]: 11100
      0.12449 [     4]: 12000
      0.10909 [     8]: 10200
      0.08292 [    28]: 00021
      0.07488 [    29]: 00012
      0.06436 [    21]: 01011
      0.05369 [     0]: 21000
      0.03704 [    19]: 01101
      0.03456 [    17]: 01200
      0.02815 [    26]: 00111
      0.02411 [    22]: 01002
      0.02250 [    10]: 10101
      0.02198 [    18]: 01110
      0.01941 [     7]: 11001
      0.01729 [     9]: 10110
      0.00941 [    12]: 10011
      0.00909 [     3]: 20001
      0.00783 [     6]: 11010
      0.00715 [    16]: 02001
      0.00540 [    15]: 02010
      0.00527 [    27]: 00102
      0.00508 [     2]: 20010
ROOT  33:  E=   -4788.4250712698 Eh  3.580 eV  28876.7 cm**-1
      0.18816 [    12]: 10011
      0.18645 [     5]: 11100
      0.13794 [    14]: 02100
      0.13095 [     1]: 20100
      0.05060 [     8]: 10200
      0.04717 [     4]: 12000
      0.04636 [    10]: 10101
      0.03243 [     0]: 21000
      0.02453 [    26]: 00111
      0.02161 [     6]: 11010
      0.02121 [    17]: 01200
      0.01670 [    28]: 00021
      0.01460 [    16]: 02001
      0.01449 [     9]: 10110
      0.01271 [    15]: 02010
      0.01173 [    21]: 01011
      0.00942 [     7]: 11001
      0.00777 [    29]: 00012
      0.00724 [    19]: 01101
      0.00437 [     3]: 20001
      0.00344 [    25]: 00120
      0.00273 [    20]: 01020
ROOT  34:  E=   -4788.4240850804 Eh  3.607 eV  29093.1 cm**-1
      0.24157 [     5]: 11100
      0.09832 [    12]: 10011
      0.08883 [    13]: 10002
      0.07383 [    26]: 00111
      0.07135 [     7]: 11001
      0.07037 [     4]: 12000
      0.05561 [    10]: 10101
      0.05000 [     6]: 11010
      0.04052 [    22]: 01002
      0.02636 [    16]: 02001
      0.02265 [    11]: 10020
      0.02194 [     1]: 20100
      0.01920 [    21]: 01011
      0.01463 [    18]: 01110
      0.01372 [     0]: 21000
      0.01251 [    29]: 00012
      0.00964 [     2]: 20010
      0.00928 [    23]: 00210
      0.00927 [    17]: 01200
      0.00831 [     9]: 10110
      0.00688 [     3]: 20001
      0.00596 [    19]: 01101
      0.00532 [    28]: 00021
      0.00465 [    15]: 02010
      0.00443 [     8]: 10200
      0.00403 [    14]: 02100
      0.00392 [    25]: 00120
      0.00372 [    20]: 01020
ROOT  35:  E=   -4788.3639289209 Eh  5.244 eV  42295.9 cm**-1
      0.24624 [    29]: 00012
      0.20286 [     2]: 20010
      0.08348 [    23]: 00210
      0.07954 [    15]: 02010
      0.05538 [    17]: 01200
      0.04686 [    22]: 01002
      0.04133 [     0]: 21000
      0.03314 [    10]: 10101
      0.03217 [    14]: 02100
      0.02964 [     5]: 11100
      0.02349 [    27]: 00102
      0.01846 [     3]: 20001
      0.01648 [    24]: 00201
      0.01246 [     7]: 11001
      0.01221 [     9]: 10110
      0.01125 [    20]: 01020
      0.01005 [    19]: 01101
      0.00724 [    26]: 00111
      0.00667 [    25]: 00120
      0.00627 [    16]: 02001
      0.00599 [    28]: 00021
      0.00498 [    11]: 10020
      0.00480 [     4]: 12000
      0.00414 [     6]: 11010
      0.00296 [    18]: 01110
ROOT  36:  E=   -4788.3601350315 Eh  5.347 eV  43128.5 cm**-1
      0.19045 [     3]: 20001
      0.16445 [    28]: 00021
      0.14756 [    24]: 00201
      0.11341 [    16]: 02001
      0.09022 [    17]: 01200
      0.04842 [     5]: 11100
      0.03090 [     9]: 10110
      0.02650 [     8]: 10200
      0.02497 [    21]: 01011
      0.02391 [    29]: 00012
      0.02247 [    10]: 10101
      0.01847 [     2]: 20010
      0.01120 [    11]: 10020
      0.01102 [    13]: 10002
      0.01050 [     6]: 11010
      0.01022 [     1]: 20100
      0.00988 [    23]: 00210
      0.00885 [    19]: 01101
      0.00872 [    12]: 10011
      0.00816 [     4]: 12000
      0.00752 [    26]: 00111
      0.00404 [    15]: 02010
      0.00253 [    25]: 00120
ROOT  37:  E=   -4788.3492705771 Eh  5.643 eV  45513.0 cm**-1
      0.25042 [    14]: 02100
      0.20487 [     1]: 20100
      0.09809 [    27]: 00102
      0.05979 [    25]: 00120
      0.05862 [    17]: 01200
      0.05764 [    19]: 01101
      0.03145 [     6]: 11010
      0.03143 [    13]: 10002
      0.02662 [    12]: 10011
      0.02299 [     5]: 11100
      0.02297 [     8]: 10200
      0.02048 [    11]: 10020
      0.01881 [     4]: 12000
      0.01654 [     0]: 21000
      0.01640 [     2]: 20010
      0.01297 [     7]: 11001
      0.00948 [    20]: 01020
      0.00882 [    28]: 00021
      0.00717 [    22]: 01002
      0.00555 [     9]: 10110
      0.00530 [    21]: 01011
      0.00526 [    16]: 02001
      0.00272 [    24]: 00201
ROOT  38:  E=   -4788.3440176681 Eh  5.786 eV  46665.9 cm**-1
      0.28190 [     4]: 12000
      0.13730 [     8]: 10200
      0.10557 [    13]: 10002
      0.07217 [    11]: 10020
      0.07159 [     0]: 21000
      0.04566 [    17]: 01200
      0.03934 [     5]: 11100
      0.03580 [    14]: 02100
      0.02775 [    15]: 02010
      0.02592 [     7]: 11001
      0.02443 [    22]: 01002
      0.01673 [    12]: 10011
      0.01420 [    18]: 01110
      0.01291 [    29]: 00012
      0.01218 [    20]: 01020
      0.01073 [    26]: 00111
      0.01023 [    19]: 01101
      0.00914 [     9]: 10110
      0.00908 [    24]: 00201
      0.00812 [    10]: 10101
      0.00658 [    16]: 02001
      0.00597 [    21]: 01011
      0.00577 [     6]: 11010
      0.00407 [     2]: 20010
      0.00330 [     1]: 20100
ROOT  39:  E=   -4788.3337746749 Eh  6.065 eV  48914.0 cm**-1
      0.30030 [     0]: 21000
      0.12741 [     1]: 20100
      0.07570 [     3]: 20001
      0.07273 [     2]: 20010
      0.06978 [    17]: 01200
      0.04217 [    22]: 01002
      0.03872 [     8]: 10200
      0.03166 [    20]: 01020
      0.02922 [     4]: 12000
      0.02912 [     6]: 11010
      0.02435 [     9]: 10110
      0.02357 [     7]: 11001
      0.02023 [    14]: 02100
      0.01794 [    16]: 02001
      0.01500 [    28]: 00021
      0.01295 [    11]: 10020
      0.01225 [    12]: 10011
      0.01126 [    27]: 00102
      0.01106 [     5]: 11100
      0.00953 [    19]: 01101
      0.00876 [    23]: 00210
      0.00340 [    29]: 00012
      0.00252 [    13]: 10002
      0.00252 [    10]: 10101

                 <<<<<<<<<<<<<<<<<<INITIAL CI STATE CHECK>>>>>>>>>>>>>>>>>>

   E(CAS)= -4788.513384875 Eh DE=    0.000000e+00
   --- Energy gap subspaces: Ext-Act = 0.479   Act-Int = 0.134
[...]
 1 19   17152.0    583.0   0.000061125   0.01549   0.00392   0.00291   0.12438
 1 20   17168.9    582.4   0.000326861   0.08277   0.04493   0.02702   0.28288
 1 21   17168.9    582.4   0.000013246   0.00335   0.02776   0.01296   0.04915
 1 22   17809.2    561.5   0.000657850   0.16059   0.03617   0.02746   0.39816
 1 23   17809.2    561.5   0.000701777   0.17132   0.05304   0.02155   0.40993
 1 24   17959.2    556.8   0.000380912   0.09221   0.05896   0.03946   0.29526
 1 25   17959.2    556.8   0.000176027   0.04261   0.05544   0.01867   0.19797
 1 26   19546.9    511.6   0.000017493   0.00389   0.01048   0.03080   0.05322
 1 27   19546.9    511.6   0.000029050   0.00646   0.00825   0.06740   0.04302
 1 28   23622.3    423.3   0.000069107   0.01272   0.01440   0.01121   0.11129
 1 29   23622.3    423.3   0.000121616   0.02238   0.01951   0.01668   0.14739
 1 30   24103.5    414.9   0.000020006   0.00361   0.04021   0.03904   0.02162
 1 31   24103.5    414.9   0.000047730   0.00861   0.06235   0.04457   0.05230
 1 32   27921.8    358.1   0.000004225   0.00066   0.00782   0.01169   0.02145
 1 33   27921.8    358.1   0.000000773   0.00012   0.00180   0.00831   0.00694
 1 34   29086.3    343.8   0.000000322   0.00005   0.00024   0.00137   0.00679
 1 35   29086.3    343.8   0.000000034   0.00001   0.00111   0.00170   0.00098
 1 36   29107.3    343.6   0.000000554   0.00008   0.00236   0.00048   0.00877
 1 37   29107.3    343.6   0.000000053   0.00001   0.00074   0.00030   0.00271
 1 38   30258.9    330.5   0.000001542   0.00022   0.00036   0.00115   0.01484
 1 39   30258.9    330.5   0.000000269   0.00004   0.00168   0.00138   0.00582
 1 40   30361.5    329.4   0.000000182   0.00003   0.00033   0.00051   0.00506
 1 41   30361.5    329.4   0.000000632   0.00009   0.00017   0.00070   0.00948
 1 42   32553.8    307.2   0.000001656   0.00022   0.00251   0.00150   0.01458
 1 43   32553.8    307.2   0.000004387   0.00059   0.00490   0.00255   0.02356
 1 44   33015.8    302.9   0.000000425   0.00006   0.00424   0.00472   0.00395
 1 45   33015.8    302.9   0.000000851   0.00011   0.00742   0.00368   0.00659
 1 46   33601.9    297.6   0.000000304   0.00004   0.00500   0.00358   0.00126
 1 47   33601.9    297.6   0.000000164   0.00002   0.00194   0.00200   0.00366
 1 48   34111.8    293.2   0.000000645   0.00008   0.00136   0.00264   0.00856
 1 49   34111.8    293.2   0.000005205   0.00066   0.00559   0.00207   0.02506
 1 50   34273.9    291.8   0.000021903   0.00278   0.01210   0.01038   0.05024
 1 51   34273.9    291.8   0.000040168   0.00510   0.00781   0.01707   0.06887
 1 52   34415.4    290.6   0.000024214   0.00306   0.03534   0.02445   0.03481
 1 53   34415.4    290.6   0.000069732   0.00881   0.04487   0.02173   0.07952
 1 54   38771.8    257.9   0.000010872   0.00122   0.02583   0.01779   0.01535
 1 55   38771.8    257.9   0.000006555   0.00074   0.01347   0.02067   0.01123
 1 56   38846.1    257.4   0.000004601   0.00051   0.01606   0.01376   0.00822
 1 57   38846.1    257.4   0.000002417   0.00027   0.01351   0.00530   0.00774
 1 58   38901.9    257.1   0.000001666   0.00019   0.01226   0.00584   0.00137
 1 59   38901.9    257.1   0.000000586   0.00007   0.00385   0.00660   0.00265
 1 60   39463.4    253.4   0.000001991   0.00022   0.01357   0.00573   0.00155
 1 61   39463.4    253.4   0.000000984   0.00011   0.00848   0.00521   0.00306
 1 62   39664.1    252.1   0.000000665   0.00007   0.00393   0.00665   0.00364
 1 63   39664.1    252.1   0.000001799   0.00020   0.00284   0.00358   0.01328
 1 64   39799.6    251.3   0.000000261   0.00003   0.00031   0.00166   0.00506
 1 65   39799.6    251.3   0.000000281   0.00003   0.00096   0.00256   0.00483
 1 66   40134.0    249.2   0.000001951   0.00021   0.01036   0.00590   0.00831
 1 67   40134.0    249.2   0.000000621   0.00007   0.00181   0.00571   0.00560
 1 68   40349.3    247.8   0.000049597   0.00534   0.06122   0.03850   0.01066
 1 69   40349.3    247.8   0.000031237   0.00337   0.04344   0.03840   0.00204
 1 70   40715.5    245.6   0.000057088   0.00610   0.04496   0.06372   0.00371
 1 71   40715.5    245.6   0.000106242   0.01134   0.06929   0.08054   0.00751
 1 72   41639.1    240.2   0.000015229   0.00159   0.02525   0.03035   0.00563
 1 73   41639.1    240.2   0.000031616   0.00330   0.03305   0.03399   0.03246
 1 74   42437.5    235.6   0.000032592   0.00334   0.00770   0.00432   0.05711
 1 75   42437.5    235.6   0.000035247   0.00361   0.00403   0.00052   0.05995
 1 76   42849.3    233.4   0.000003343   0.00034   0.01013   0.01158   0.01012
 1 77   42849.3    233.4   0.000003229   0.00033   0.00580   0.00637   0.01592
 1 78   43506.4    229.9   0.000006328   0.00063   0.00296   0.00633   0.02416
 1 79   43506.4    229.9   0.000013662   0.00137   0.01308   0.00575   0.03408
 1 80   44767.8    223.4   0.000020374   0.00198   0.03037   0.03243   0.00219
 1 81   44767.8    223.4   0.000006744   0.00065   0.01328   0.02176   0.00224
 1 82   45397.5    220.3   0.000004167   0.00040   0.00847   0.01715   0.00578
 1 83   45397.5    220.3   0.000001279   0.00012   0.00392   0.01025   0.00142
 1 84   45670.0    219.0   0.000006038   0.00057   0.01883   0.00978   0.01115
 1 85   45670.0    219.0   0.000001409   0.00013   0.00294   0.01059   0.00366
 1 86   46367.3    215.7   0.000001368   0.00013   0.00994   0.00514   0.00176
 1 87   46367.3    215.7   0.000006870   0.00064   0.02294   0.00888   0.00625
 1 88   50100.8    199.6   0.000027238   0.00236   0.00389   0.01370   0.04648
 1 89   50100.8    199.6   0.000080703   0.00700   0.00652   0.02450   0.07975
 1 90   50720.9    197.2   0.000055045   0.00472   0.00562   0.01540   0.06670
 1 91   50720.9    197.2   0.000017148   0.00147   0.01563   0.02616   0.02326
 1 92   51160.0    195.5   0.000089996   0.00765   0.04321   0.07537   0.01000
 1 93   51160.0    195.5   0.000050519   0.00429   0.01643   0.06339   0.00231
 1 94   52363.2    191.0   0.000011019   0.00091   0.02126   0.01813   0.01159
 1 95   52363.2    191.0   0.000004399   0.00037   0.01371   0.01129   0.00706
 1 96   57035.9    175.3   0.000000005   0.00000   0.00026   0.00055   0.00021
 1 97   57035.9    175.3   0.000000065   0.00000   0.00176   0.00133   0.00016
 1 98   57081.5    175.2   0.000000011   0.00000   0.00061   0.00066   0.00013
 1 99   57081.5    175.2   0.000000003   0.00000   0.00029   0.00034   0.00006
 1 100   65687.1    152.2   0.000007917   0.00052   0.01159   0.01621   0.01126
 1 101   65687.1    152.2   0.000017883   0.00118   0.02164   0.00723   0.02575
 1 102   65956.1    151.6   0.000002182   0.00014   0.00567   0.00223   0.01033
 1 103   65956.1    151.6   0.000000915   0.00006   0.00358   0.00302   0.00620
 1 104   66629.5    150.1   0.000030045   0.00196   0.01977   0.00591   0.03917
 1 105   66629.5    150.1   0.000014037   0.00092   0.01260   0.01396   0.02371
 1 106   67397.4    148.4   0.000051657   0.00333   0.01993   0.02221   0.04941
 1 107   67397.4    148.4   0.000006087   0.00039   0.00897   0.01653   0.00623
 1 108   69912.6    143.0   0.000001062   0.00007   0.00172   0.00052   0.00792
 1 109   69912.6    143.0   0.000000469   0.00003   0.00268   0.00184   0.00431
 1 110   71051.6    140.7   0.000002164   0.00013   0.00663   0.00709   0.00617
 1 111   71051.6    140.7   0.000001742   0.00011   0.00732   0.00657   0.00314
 1 112   71085.1    140.7   0.000001045   0.00006   0.00397   0.00321   0.00615
 1 113   71085.1    140.7   0.000006010   0.00037   0.00170   0.00500   0.01843
 1 114   73715.5    135.7   0.000000104   0.00001   0.00211   0.00092   0.00094
 1 115   73715.5    135.7   0.000000095   0.00001   0.00210   0.00094   0.00055
 1 116   80700.0    123.9   0.000002902   0.00016   0.00327   0.00351   0.01154
 1 117   80700.0    123.9   0.000005214   0.00028   0.00291   0.00359   0.01611
 1 118   80865.3    123.7   0.000001029   0.00006   0.00271   0.00172   0.00671
 1 119   80865.3    123.7   0.000002644   0.00014   0.00314   0.00156   0.01140

------------------------------------------------------------------------------
                           SOC CORRECTED DIPOLE MOMENTS
------------------------------------------------------------------------------
      TX        TY        TZ           |T|
   (Debye)   (Debye)   (Debye)      (Debye)
------------------------------------------------------------------------------
  -1.74382   1.48851   5.90982      6.33897

--------------
CASSCF TIMINGS
--------------

Total time                       ...    31696.9 sec
Sum of individual times          ...    15121.1 sec ( 47.7%)

Calculation of AO operators
   F(Core) operator              ...      564.5 sec (  1.8%)
   G(Act) operator               ...      520.7 sec (  1.6%)
Calculation of MO transformed quantities
   J(MO) operators               ...    12797.2 sec ( 40.4%)
   AO->MO one electron integrals ...        3.6 sec (  0.0%)
Configuration interaction steps
   CI-setup phase                ...        0.5 sec (  0.0%)
   CI-solution phase             ...       28.9 sec (  0.1%)
   Generation of densities       ...       13.2 sec (  0.0%)
Orbital improvement steps
   Orbital gradient              ...        1.1 sec (  0.0%)
   O(1) converger                ...       27.3 sec (  0.1%)
CPCM steps
   Total CPCM time               ...        0.6 sec (  0.0%)
Properties                       ...      582.2 sec (  1.8%)
   SOC integral calculation      ...      581.1 sec (  1.8%)
   SSC RMEs (incl. integrals)    ...        0.0 sec (  0.0%)
   SOC RMEs                      ...        0.1 sec (  0.0%)

Maximum memory used throughout the entire CASSCF-calculation: 547.8 MB


           ************************************************************
           *        Program running with 20 parallel MPI-processes    *
           *              working on a common directory               *
           ************************************************************

------------------------------------------------------------------------------
                         ORCA PROPERTY INTEGRAL CALCULATIONS
------------------------------------------------------------------------------

GBWName                                   ... mol.gbw
Number of atoms                           ...     48
Number of basis functions                 ...    801
Max core memory                           ...   1024 MB

Dipole integrals                          ... YES
Quadrupole integrals                      ...  NO
Linear Momentum integrals                 ...  NO
Angular Momentum integrals                ...  NO
Higher Moments length integrals           ...  NO
Higher Moments velocity integrals         ...  NO
Kinetic energy integrals                  ...  NO
GIAO Right Hand Sides                     ...  NO
SOC integrals                             ...  NO
EPR diamagnetic integrals (GIAO)          ...  NO
EPR gauge integrals                       ...  NO
Field gradient integrals                  ...  NO (   0 nuclei)
Spin-dipole/Fermi contact integrals       ...  NO (   0 nuclei)
Nucleus-orbit integrals                   ...  NO (   0 nuclei)
Geometric perturbations                   ...  NO (  48 nuclei)
Electric origin: ( -0.0197,  0.0140,  0.7284) 
Magnetic origin: (  0.0000,  0.0000,  0.0000) 

Calculating integrals                     ... Electric Dipole (Length)     done (  0.4 sec)

Property integrals calculated in   0.4 sec

Maximum memory used throughout the entire PROPINT-calculation: 79.5 MB

-------------------------   --------------------
FINAL SINGLE POINT ENERGY     -4790.061889008501
-------------------------   --------------------


                            ***************************************
                            *     ORCA property calculations      *
                            ***************************************

                                    ---------------------
                                    Active property flags
                                    ---------------------
   (+) Dipole Moment


------------------------------------------------------------------------------
                       ORCA ELECTRIC PROPERTIES CALCULATION
------------------------------------------------------------------------------

Dipole Moment Calculation                       ... ON
Quadrupole Moment Calculation                   ... OFF
Polarizability Calculation                      ... OFF
Atomic Dipole Moment Calculation                ... OFF
Atomic Quadrupole Moment Calculation            ... OFF
Atomic Polarizability Calculation               ... OFF
Relativistic picture-change correction          ... OFF
GBWName                                         ... mol.gbw
Electron density                                ... mol.scfp

The origin for moment calculation is the CENTER OF MASS  = (-0.019722,  0.013989  0.728381)

-------------
DIPOLE MOMENT
-------------
                                X             Y             Z
Electronic contribution:      0.31014      -0.56069      -2.99137
Nuclear contribution   :     -0.68622       0.58518       2.32308
                        -----------------------------------------
Total Dipole Moment    :     -0.37607       0.02449      -0.66829
                        -----------------------------------------
Magnitude (a.u.)       :      0.76723
Magnitude (Debye)      :      1.95014



--------------------
Rotational spectrum 
--------------------
 
Rotational constants in cm-1:     0.011582     0.011080     0.009673 
Rotational constants in MHz :   347.213527   332.180003   289.981014 

 Dipole components along the rotational axes: 
x,y,z [a.u.] :     0.372522     0.187989    -0.643838 
x,y,z [Debye]:     0.946875     0.477830    -1.636506 

 

--------------------------------
SUGGESTED CITATIONS FOR THIS RUN
--------------------------------

Below you find a list of papers that are relevant to this ORCA run
We neither can nor want to force you to cite these paper, but we appreciate if you do
You receive ORCA, which is the product of a lot of hard work by many enthusiastic individuals, for free
The only thing we kindly ask in return is that you cite our papers,
We deeply appreciate it, if you show your appreciation for ORCA by not just citing the generic ORCA reference.

Please note that relegating all ORCA citations to the supporting information does *not* help us.
SI sections are not indexed - citations you put there will not count into any citation statistics
But we need these citations in order to attract the funding resources that allow us to do what we are doing

Therefore, if you are a happy ORCA user, please consider citing a few of the papers listed below in the main body of your paper

In addition to the list printed below, the program has created the file mol.bibtex that contains the list in bibtex format
You can import this file easily into all common literature databanks and citation aid programs


List of essential papers. We consider these as the minimum necessary citations

  1. Neese,F.
     Software update: the ORCA program system, version 5.0
     WIRES Comput. Molec. Sci., 2022 12(1)e1606
     doi.org/10.1002/wcms.1606

List of papers to cite with high priority. The work reported in these papers was absolutely
necessary for this run to complete.
Our perspective: the developers of density functionals and basis sets usually get cited in chemistry papers
Good! But without the algorithms to do something with them, the functionals or basis sets would not do anything.
Hence, in our opinion, the algorithm design and method developments papers are equally worthy of getting cited

  1. Kollmar,C.; Sivalingam,K.; Helmich-Paris,B.; Angeli,C.; Neese,F.
     A perturbation-based super-CI approach for the orbital optimization of a CASSCF wave function
     J. Comput. Chem., 2019 40 1463-1470
     doi.org/10.1002/jcc.25801
  2. Neese,F.
     The SHARK Integral Generation and Digestion System
     J. Comp. Chem., 2022  1-16
     doi.org/10.1002/jcc.26942

List of suggested additional citations. These are papers that are important in the 'surrounding' of 
of this run, or papers that preceded the highly important papers. If you like your results we are grateful for a citation.

  1. Neese,F.
     The ORCA program system
     WIRES Comput. Molec. Sci., 2012 2(1)73-78
     doi.org/10.1002/wcms.81
  2. Neese,F.
     Software update: the ORCA program system, version 4.0
     WIRES Comput. Molec. Sci., 2018 8(1)1-6
     doi.org/10.1002/wcms.1327
  3. Neese,F.; Wennmohs,F.; Becker,U.; Riplinger,C.
     The ORCA quantum chemistry program package
     J. Chem. Phys., 2020 152 Art. No. L224108
     doi.org/10.1063/5.0004608

Timings for individual modules:

Sum of individual times         ...    31911.643 sec (= 531.861 min)
GTO integral calculation        ...       12.575 sec (=   0.210 min)   0.0 %
Relativistic integrals          ...      156.101 sec (=   2.602 min)   0.5 %
SCF iterations                  ...       39.539 sec (=   0.659 min)   0.1 %
CASSCF iterations               ...    31697.986 sec (= 528.300 min)  99.3 %
Property integrals              ...        5.442 sec (=   0.091 min)   0.0 %
                             ****ORCA TERMINATED NORMALLY****
TOTAL RUN TIME: 0 days 8 hours 51 minutes 52 seconds 893 msec
'combined.gbw' -> '/csnfs/users/llang/calculations/ICE_SOC_SSC/Mo_HIPT_NH3/scalarrel/CASSCF_3_5_startorbs/mergefrag_startorbs/CASSCF_3_5_QDPT_locorbs/combined.gbw'
'mol.CAS_DTensor_HEFF_rotated.xyz' -> '/csnfs/users/llang/calculations/ICE_SOC_SSC/Mo_HIPT_NH3/scalarrel/CASSCF_3_5_startorbs/mergefrag_startorbs/CASSCF_3_5_QDPT_locorbs/mol.CAS_DTensor_HEFF_rotated.xyz'
'mol.FAO_CAS' -> '/csnfs/users/llang/calculations/ICE_SOC_SSC/Mo_HIPT_NH3/scalarrel/CASSCF_3_5_startorbs/mergefrag_startorbs/CASSCF_3_5_QDPT_locorbs/mol.FAO_CAS'
'mol.bibtex' -> '/csnfs/users/llang/calculations/ICE_SOC_SSC/Mo_HIPT_NH3/scalarrel/CASSCF_3_5_startorbs/mergefrag_startorbs/CASSCF_3_5_QDPT_locorbs/mol.bibtex'
'mol.cstart_0_87.gbw' -> '/csnfs/users/llang/calculations/ICE_SOC_SSC/Mo_HIPT_NH3/scalarrel/CASSCF_3_5_startorbs/mergefrag_startorbs/CASSCF_3_5_QDPT_locorbs/mol.cstart_0_87.gbw'
'mol.cstart_88_92.gbw' -> '/csnfs/users/llang/calculations/ICE_SOC_SSC/Mo_HIPT_NH3/scalarrel/CASSCF_3_5_startorbs/mergefrag_startorbs/CASSCF_3_5_QDPT_locorbs/mol.cstart_88_92.gbw'
'mol.cstart_93_800.gbw' -> '/csnfs/users/llang/calculations/ICE_SOC_SSC/Mo_HIPT_NH3/scalarrel/CASSCF_3_5_startorbs/mergefrag_startorbs/CASSCF_3_5_QDPT_locorbs/mol.cstart_93_800.gbw'
'mol.densities' -> '/csnfs/users/llang/calculations/ICE_SOC_SSC/Mo_HIPT_NH3/scalarrel/CASSCF_3_5_startorbs/mergefrag_startorbs/CASSCF_3_5_QDPT_locorbs/mol.densities'
'mol.err' -> '/csnfs/users/llang/calculations/ICE_SOC_SSC/Mo_HIPT_NH3/scalarrel/CASSCF_3_5_startorbs/mergefrag_startorbs/CASSCF_3_5_QDPT_locorbs/mol.err'
'mol.fsv' -> '/csnfs/users/llang/calculations/ICE_SOC_SSC/Mo_HIPT_NH3/scalarrel/CASSCF_3_5_startorbs/mergefrag_startorbs/CASSCF_3_5_QDPT_locorbs/mol.fsv'
'mol.gbw' -> '/csnfs/users/llang/calculations/ICE_SOC_SSC/Mo_HIPT_NH3/scalarrel/CASSCF_3_5_startorbs/mergefrag_startorbs/CASSCF_3_5_QDPT_locorbs/mol.gbw'
'mol.job' -> '/csnfs/users/llang/calculations/ICE_SOC_SSC/Mo_HIPT_NH3/scalarrel/CASSCF_3_5_startorbs/mergefrag_startorbs/CASSCF_3_5_QDPT_locorbs/mol.job'
'mol.mpi20.out_problemgtensor' -> '/csnfs/users/llang/calculations/ICE_SOC_SSC/Mo_HIPT_NH3/scalarrel/CASSCF_3_5_startorbs/mergefrag_startorbs/CASSCF_3_5_QDPT_locorbs/mol.mpi20.out_problemgtensor'
'mol_property.txt' -> '/csnfs/users/llang/calculations/ICE_SOC_SSC/Mo_HIPT_NH3/scalarrel/CASSCF_3_5_startorbs/mergefrag_startorbs/CASSCF_3_5_QDPT_locorbs/mol_property.txt'
cp: cannot stat 'mol.asa.inp': No such file or directory
cp: missing destination file operand after '/csnfs/users/llang/calculations/ICE_SOC_SSC/Mo_HIPT_NH3/scalarrel/CASSCF_3_5_startorbs/mergefrag_startorbs/CASSCF_3_5_QDPT_locorbs/'
Try 'cp --help' for more information.
