! Job execution by suborca V 9.37 !
Job started from head1.mpi-muelheim.mpg.de, running /hsnfs/software/orca/orca_current_directory/orca_current_20230615/orca on xe30th28.mpi-muelheim.mpg.de in /usr/scratch/llang/mol__279399 (/bin/tcsh)
Job execution start: Thu Jun 15 10:21:26 CEST 2023
Shared library path: /hsnfs/software/openmpi-4.1.0/lib:/hsnfs/software/orca/orca_current_directory/orca_current_20230615:/hsnfs/software/themis/llvm-14.0.1/lib:/hsnfs/software/orca/orca_stable:/usr/users/openmpi-2.0.4/lib:/opt/intel/lib/intel64:/opt/intel/mkl/lib/intel64
SLURM Job ID is: 279399
SLURM_JOB_NODELIST: xe30th28
Maxcore enforced by SLURM: 2048 MB
Expanded nodelist (1 nodes):
xe30th28

                                 *****************
                                 * O   R   C   A *
                                 *****************

                                            #,                                       
                                            ###                                      
                                            ####                                     
                                            #####                                    
                                            ######                                   
                                           ########,                                 
                                     ,,################,,,,,                         
                               ,,#################################,,                 
                          ,,##########################################,,             
                       ,#########################################, ''#####,          
                    ,#############################################,,   '####,        
                  ,##################################################,,,,####,       
                ,###########''''           ''''###############################       
              ,#####''   ,,,,##########,,,,          '''####'''          '####       
            ,##' ,,,,###########################,,,                        '##       
           ' ,,###''''                  '''############,,,                           
         ,,##''                                '''############,,,,        ,,,,,,###''
      ,#''                                            '''#######################'''  
     '                                                          ''''####''''         
             ,#######,   #######,   ,#######,      ##                                
            ,#'     '#,  ##    ##  ,#'     '#,    #''#        ,####,   ,####,        
            ##       ##  ##   ,#'  ##            #'  '#       #'       #'  '#        
            ##       ##  #######   ##           ,######,      #####,   #    #        
            '#,     ,#'  ##    ##  '#,     ,#' ,#      #,     #,   #   #,  ,#        
             '#######'   ##     ##  '#######'  #'      '#     '####' # '####'.alpha  



                  #######################################################
                  #                        -***-                        #
                  #          Department of theory and spectroscopy      #
                  #    Directorship and core code : Frank Neese         #
                  #        Max Planck Institute fuer Kohlenforschung    #
                  #                Kaiser Wilhelm Platz 1               #
                  #                 D-45470 Muelheim/Ruhr               #
                  #                      Germany                        #
                  #                                                     #
                  #                  All rights reserved                #
                  #                        -***-                        #
                  #######################################################


                         Program Version 5.0  -  CURRENT   -
                                (GIT: $aeca473df$)
                ($2023-06-14 19:36:16 +0200 $)

                  !                     WARNING:                         !
                  !         This is a DEVELOPMENT version                !

                         (BUILD: $Do 15. Jun 00:07:55 CEST 2023$)


 With contributions from (in alphabetic order):
   Daniel Aravena         : Magnetic Suceptibility
   Michael Atanasov       : Ab Initio Ligand Field Theory (pilot matlab implementation)
   Alexander A. Auer      : GIAO ZORA, VPT2 properties, NMR spectrum
   Ute Becker             : Parallelization
   Giovanni Bistoni       : ED, misc. LED, open-shell LED, HFLD
   Martin Brehm           : Molecular dynamics
   Dmytro Bykov           : SCF Hessian
   Vijay G. Chilkuri      : MRCI spin determinant printing, contributions to CSF-ICE
   Dipayan Datta          : RHF DLPNO-CCSD density
   Achintya Kumar Dutta   : EOM-CC, STEOM-CC
   Dmitry Ganyushin       : Spin-Orbit,Spin-Spin,Magnetic field MRCI
   Miquel Garcia          : C-PCM and meta-GGA Hessian, CCSD/C-PCM, Gaussian charge scheme
   Yang Guo               : DLPNO-NEVPT2, F12-NEVPT2, CIM, IAO-localization
   Andreas Hansen         : Spin unrestricted coupled pair/coupled cluster methods
   Benjamin Helmich-Paris : MC-RPA, TRAH-(SCF,CASSCF), AVAS, COSX integrals, SCF dyn. polar.
   Lee Huntington         : MR-EOM, pCC
   Robert Izsak           : Overlap fitted RIJCOSX, COSX-SCS-MP3, EOM
   Marcus Kettner         : VPT2
   Christian Kollmar      : KDIIS, OOCD, Brueckner-CCSD(T), CCSD density, CASPT2, CASPT2-K, improved NEVPT2
   Simone Kossmann        : Meta GGA functionals, TD-DFT gradient, OOMP2, MP2 Hessian
   Martin Krupicka        : Initial AUTO-CI
   Lucas Lang             : DCDCAS
   Marvin Lechner         : AUTO-CI (C++ implementation), FIC-MRCC
   Dagmar Lenk            : GEPOL surface, SMD
   Dimitrios Liakos       : Extrapolation schemes; Compound Job, initial MDCI parallelization
   Dimitrios Manganas     : Further ROCIS development; embedding schemes
   Dimitrios Pantazis     : SARC Basis sets
   Anastasios Papadopoulos: AUTO-CI, single reference methods and gradients
   Taras Petrenko         : DFT Hessian,TD-DFT gradient, ASA, ECA, R-Raman, ABS, FL, XAS/XES, NRVS
   Peter Pinski           : DLPNO-MP2, DLPNO-MP2 Gradient
   Christoph Reimann      : Effective Core Potentials
   Marius Retegan         : Local ZFS, SOC
   Christoph Riplinger    : Optimizer, TS searches, QM/MM, DLPNO-CCSD(T), (RO)-DLPNO pert. Triples
   Tobias Risthaus        : Range-separated hybrids, TD-DFT gradient, RPA, STAB
   Michael Roemelt        : Original ROCIS implementation
   Masaaki Saitow         : Open-shell DLPNO-CCSD energy and density
   Barbara Sandhoefer     : DKH picture change effects
   Avijit Sen             : IP-ROCIS
   Kantharuban Sivalingam : CASSCF convergence, NEVPT2, FIC-MRCI
   Bernardo de Souza      : ESD, SOC TD-DFT
   Georgi Stoychev        : AutoAux, RI-MP2 NMR, DLPNO-MP2 response
   Willem Van den Heuvel  : Paramagnetic NMR
   Boris Wezisla          : Elementary symmetry handling
   Frank Wennmohs         : Technical directorship


 We gratefully acknowledge several colleagues who have allowed us to
 interface, adapt or use parts of their codes:
   Stefan Grimme, W. Hujo, H. Kruse, P. Pracht,  : VdW corrections, initial TS optimization,
                  C. Bannwarth, S. Ehlert          DFT functionals, gCP, sTDA/sTD-DF
   Ed Valeev, F. Pavosevic, A. Kumar             : LibInt (2-el integral package), F12 methods
   Garnet Chan, S. Sharma, J. Yang, R. Olivares  : DMRG
   Ulf Ekstrom                                   : XCFun DFT Library
   Mihaly Kallay                                 : mrcc  (arbitrary order and MRCC methods)
   Jiri Pittner, Ondrej Demel                    : Mk-CCSD
   Frank Weinhold                                : gennbo (NPA and NBO analysis)
   Christopher J. Cramer and Donald G. Truhlar   : smd solvation model
   Lars Goerigk                                  : TD-DFT with DH, B97 family of functionals
   V. Asgeirsson, H. Jonsson                     : NEB implementation
   FAccTs GmbH                                   : IRC, NEB, NEB-TS, DLPNO-Multilevel, CI-OPT
                                                   MM, QMMM, 2- and 3-layer-ONIOM, Crystal-QMMM,
                                                   LR-CPCM, SF, NACMEs, symmetry and pop. for TD-DFT,
                                                   nearIR, NL-DFT gradient (VV10), updates on ESD,
                                                   ML-optimized integration grids
   S Lehtola, MJT Oliveira, MAL Marques          : LibXC Library
   Liviu Ungur et al                             : ANISO software


 Your calculation uses the libint2 library for the computation of 2-el integrals
 For citations please refer to: http://libint.valeyev.net

 Your ORCA version has been built with support for libXC version: 5.2.2
 For citations please refer to: https://tddft.org/programs/libxc/

 This ORCA versions uses:
   CBLAS   interface :  Fast vector & matrix operations
   LAPACKE interface :  Fast linear algebra routines
   SCALAPACK package :  Parallel linear algebra routines
   Shared memory     :  Shared parallel matrices


================================================================================

----- Orbital basis set information -----
Your calculation utilizes the basis: SARC-DKH-TZVP 
   Rb-Xe:  J. D. Rolfes, F. Neese and D. A. Pantazis, J. Comput. Chem. 41, 1842 (2020).
   La-Lu:  D. A. Pantazis and F. Neese, J. Chem. Theory Comput. 5, 2229 (2009).
   Hf-Hg:  D. A. Pantazis, X. Y. Chen, C. R. Landis and F. Neese, J. Chem. Theory Comput. 4, 908 (2008).
   Tl-Rn:  D. A. Pantazis and F. Neese, Theor. Chem. Acc. 131, 1292 (2012).
   Ac-Lr:  D. A. Pantazis and F. Neese, J. Chem. Theory Comput. 7, 677 (2011).

================================================================================
                                        WARNINGS
                       Please study these warnings very carefully!
================================================================================


INFO   : the flag for use of the SHARK integral package has been found!

================================================================================
                                       INPUT FILE
================================================================================
NAME = mol.inp
|  1> ! DKH2 SARC-DKH-TZVP
|  2> 
|  3> %pal
|  4>   nprocs 12
|  5> end
|  6> 
|  7> %casscf
|  8>   nel 3
|  9>   norb 5
| 10>   mult 4,2
| 11>   nroots 10,40
| 12>   maxiter 1
| 13>   intorbs unchanged
| 14>   actorbs unchanged
| 15>   extorbs unchanged
| 16> end
| 17> 
| 18> * xyz 3 2
| 19> Mo 0.000000 0.000000 0.000000
| 20> *
| 21> 
| 22>                          ****END OF INPUT****
================================================================================

                       ****************************
                       * Single Point Calculation *
                       ****************************

---------------------------------
CARTESIAN COORDINATES (ANGSTROEM)
---------------------------------
  Mo     0.000000    0.000000    0.000000

----------------------------
CARTESIAN COORDINATES (A.U.)
----------------------------
  NO LB      ZA    FRAG     MASS         X           Y           Z
   0 Mo   42.0000    0    95.940    0.000000    0.000000    0.000000

--------------------------------
INTERNAL COORDINATES (ANGSTROEM)
--------------------------------
 Mo     0   0   0     0.000000000000     0.00000000     0.00000000

---------------------------
INTERNAL COORDINATES (A.U.)
---------------------------
 Mo     0   0   0     0.000000000000     0.00000000     0.00000000

---------------------
BASIS SET INFORMATION
---------------------
There are 1 groups of distinct atoms

 Group   1 Type Mo  : 22s15p9d1f contracted to 15s10p5d1f pattern {811111111111111/6111111111/51111/1}



           ************************************************************
           *        Program running with 12 parallel MPI-processes    *
           *              working on a common directory               *
           ************************************************************
------------------------------------------------------------------------------
                           ORCA GTO INTEGRAL CALCULATION
------------------------------------------------------------------------------
------------------------------------------------------------------------------
                   ___                                                        
                  /   \      - P O W E R E D   B Y -                         
                 /     \                                                     
                 |  |  |   _    _      __       _____    __    __             
                 |  |  |  | |  | |    /  \     |  _  \  |  |  /  |          
                  \  \/   | |  | |   /    \    | | | |  |  | /  /          
                 / \  \   | |__| |  /  /\  \   | |_| |  |  |/  /          
                |  |  |   |  __  | /  /__\  \  |    /   |      \           
                |  |  |   | |  | | |   __   |  |    \   |  |\   \          
                \     /   | |  | | |  |  |  |  | |\  \  |  | \   \       
                 \___/    |_|  |_| |__|  |__|  |_| \__\ |__|  \__/        
                                                                              
                      - O R C A' S   B I G   F R I E N D -                    
                                      &                                       
                       - I N T E G R A L  F E E D E R -                       
                                                                              
 v1 FN, 2020, v2 2021                                                         
------------------------------------------------------------------------------


----------------------
SHARK INTEGRAL PACKAGE
----------------------

Number of atoms                             ...      1
Number of basis functions                   ...     77
Number of shells                            ...     31
Maximum angular momentum                    ...      3
Integral batch strategy                     ... SHARK/LIBINT Hybrid
RI-J (if used) integral strategy            ... SPLIT-RIJ (Revised 2003 algorithm where possible)
Printlevel                                  ...      1
Contraction scheme used                     ... SEGMENTED contraction
Prescreening option                         ... SCHWARTZ
   Thresh                                   ... 1.000e-10
   Tcut                                     ... 1.000e-11
   Tpresel                                  ... 1.000e-11 
Coulomb Range Separation                    ... NOT USED
Exchange Range Separation                   ... NOT USED
Finite Nucleus Model                        ... NOT USED
Auxiliary Coulomb fitting basis             ... NOT available
Auxiliary J/K fitting basis                 ... NOT available
Auxiliary Correlation fitting basis         ... NOT available
Auxiliary 'external' fitting basis          ... NOT available

Calculating pre-screening integrals         ... done (  0.0 sec) Dimension = 31
Organizing shell pair data                  ... done (  0.0 sec)
Shell pair information
Total number of shell pairs                 ...       496
Shell pairs after pre-screening             ...       496
Total number of primitive shell pairs       ...      1181
Primitive shell pairs kept                  ...      1181
          la=0 lb=0:    120 shell pairs
          la=1 lb=0:    150 shell pairs
          la=1 lb=1:     55 shell pairs
          la=2 lb=0:     75 shell pairs
          la=2 lb=1:     50 shell pairs
          la=2 lb=2:     15 shell pairs
          la=3 lb=0:     15 shell pairs
          la=3 lb=1:     10 shell pairs
          la=3 lb=2:      5 shell pairs
          la=3 lb=3:      1 shell pairs

Calculating one electron integrals          ... done (  0.0 sec)
Calculating Nuclear repulsion               ... done (  0.0 sec) ENN=      0.000000000000 Eh

-------------------
DFT GRID GENERATION
-------------------

General Integration Accuracy     IntAcc      ... 4.388
Radial Grid Type                 RadialGrid  ... OptM3 with GC (2021)
Angular Grid (max. ang.)         AngularGrid ... 4 (Lebedev-302)
Angular grid pruning method      GridPruning ... 4 (adaptive)
Weight generation scheme         WeightScheme... mBecke (2022)
Basis function cutoff            BFCut       ... 1.0000e-10
Integration weight cutoff        WCut        ... 1.0000e-14
Partially contracted basis set               ... off
Rotationally invariant grid construction     ... off
Angular grids for H and He will be reduced by one unit
Core-polarized basis detected: some atoms will have their core
                               angular grid increased.
Steep s-basis detected: some atoms will have their radial
                        grid points doubled.

Total number of grid points                  ...    27544
Total number of batches                      ...      431
Average number of points per batch           ...       63
Average number of grid points per atom       ...    27544
Initializing poperty integral containers    ... done (  0.0 sec)

SHARK setup successfully completed in   1.5 seconds

Maximum memory used throughout the entire GTOINT-calculation: 16.4 MB


           ************************************************************
           *        Program running with 12 parallel MPI-processes    *
           *              working on a common directory               *
           ************************************************************
------------------------------------------------------------------------------
                          ORCA RELATIVISTIC HAMILTONIAN
------------------------------------------------------------------------------

Relativistic Method            ... DKH
Order of DKH treatment         ...   2
Treatment of potential         ... V(e,N)
Eps parameter for DKH          ...   0.00000000010000
Nucleus model                  ... Point Nucleus
Speed of light used            ... 137.03598950000000


            ************************************************
            *        DOUGLAS-KROLL-HESS HAMILTONIAN        *
            *   Programmed by FN according to literature   *
            *        procedures. Special thanks to         *
            *       B.A. Hess, M. Reiher and A. Wolf       *
            *     University Erlangen-Nuernberg/Bonn       *
            ************************************************

Uncontracting the basis (first version)        ... done
Number of contracted basis functions           ...   77
Number of uncontracted basis functions         ...  119
Initializing the DKH file                      ... done
Calculating the relativistic integrals         ... done
Storing DKH matrices                           ... done
Code used for DKH trafo                        ... ORCA
Computing the DKH transformation               ... done
Storing the transformation variables           ... done
Transforming V and pVp to p**2 space           ... done
First transformation of V and pVp              ... done
Second transformation of Veff                  ... done
Adding kinetic energy                          ... done
Back transformation of Veff to r-space         ... done
Recovering DKH matrices                        ... done
Recontracting the H-matrix (first version)     ... done
Computing the DKH correction to the H-matrix   ... done
Reading the original H-matrix                  ... done
Adding DKH correction to the H-matrix          ... done
Storing the new modified H-matrix              ... done

Maximum memory used throughout the entire REL-calculation: 10.9 MB


           ************************************************************
           *        Program running with 12 parallel MPI-processes    *
           *              working on a common directory               *
           ************************************************************

------------------------------------------------------------------------------
                         ORCA PROPERTY INTEGRAL CALCULATIONS
------------------------------------------------------------------------------

GBWName                                   ... mol.gbw
Number of atoms                           ...      1
Number of basis functions                 ...     77
Max core memory                           ...   1024 MB

Dipole integrals                          ... YES
Quadrupole integrals                      ...  NO
Linear Momentum integrals                 ...  NO
Angular Momentum integrals                ...  NO
Higher Moments length integrals           ...  NO
Higher Moments velocity integrals         ...  NO
Kinetic energy integrals                  ...  NO
GIAO Right Hand Sides                     ...  NO
SOC integrals                             ...  NO
EPR diamagnetic integrals (GIAO)          ...  NO
EPR gauge integrals                       ...  NO
Field gradient integrals                  ...  NO (   0 nuclei)
Spin-dipole/Fermi contact integrals       ...  NO (   0 nuclei)
Nucleus-orbit integrals                   ...  NO (   0 nuclei)
Geometric perturbations                   ...  NO (   1 nuclei)
Electric origin: (  0.0000,  0.0000,  0.0000) 
Magnetic origin: (  0.0000,  0.0000,  0.0000) 

Calculating integrals                     ... Electric Dipole (Length)     done (  0.0 sec)

Property integrals calculated in   0.0 sec

Maximum memory used throughout the entire PROPINT-calculation: 6.0 MB


           ************************************************************
           *        Program running with 12 parallel MPI-processes    *
           *              working on a common directory               *
           ************************************************************
-------------------------------------------------------------------------------
                                 ORCA SCF
-------------------------------------------------------------------------------

------------
SCF SETTINGS
------------
Hamiltonian:
 Ab initio Hamiltonian  Method          .... Hartree-Fock(GTOs)

Relativistic Settings:
 Scalar relativistic method             .... Douglas-Kroll-Hess
 Order of DKH procedure    Order        ....    2
 Mode of DKH-treatment                  .... V=V(e,N)
 Speed of light used       Velit        ....       137.035989
 Cutoff-constant           Eps          ....            1e-10 


General Settings:
 Integral files         IntName         .... mol
 Hartree-Fock type      HFTyp           .... CASSCF
 Total Charge           Charge          ....    3
 Multiplicity           Mult            ....    2
 Number of Electrons    NEL             ....   39
 Basis Dimension        Dim             ....   77
 Nuclear Repulsion      ENuc            ....      0.0000000000 Eh


Diagonalization of the overlap matrix:
Smallest eigenvalue                        ... 7.236e-04
Time for diagonalization                   ...    0.003 sec
Threshold for overlap eigenvalues          ... 1.000e-08
Number of eigenvalues below threshold      ... 0
Time for construction of square roots      ...    0.029 sec
Total time needed                          ...    0.032 sec

------------------------------
INITIAL GUESS: MODEL POTENTIAL
------------------------------
Model grid setup                                   ... done (   0.3 sec)
Loading DKH relativistic densities                 ... done
Calculating cut-offs                               ... done
Initializing the effective Hamiltonian             ... done
Setting up the integral package (SHARK)            ... done
Starting the Coulomb interaction                   ... done (   0.0 sec)
Reading the grid                                   ... done
Mapping shells                                     ... done
Starting the XC term evaluation                    ... done (   0.0 sec)
Transforming the Hamiltonian                       ... done (   0.0 sec)
Diagonalizing the Hamiltonian                      ... done (   0.0 sec)
Back transforming the eigenvectors                 ... done (   0.0 sec)
Now organizing SCF variables                       ... done
                      ------------------
                      INITIAL GUESS DONE (   0.3 sec)
                      ------------------


 ... the calculation is a CASSCF calculation -I'm leaving here GOOD LUCK!!!



           ************************************************************
           *        Program running with 12 parallel MPI-processes    *
           *              working on a common directory               *
           ************************************************************
-------------------------------------------------------------------------------
                              ORCA-CASSCF
-------------------------------------------------------------------------------

Setting up the integral package     ... done
Building the CAS space              ... done (10 configurations for Mult=4)
Building the CAS space              ... done (30 configurations for Mult=2)

SYSTEM-SPECIFIC SETTINGS:
Number of active electrons          ...    3
Number of active orbitals           ...    5
Total number of electrons           ...   39
Total number of orbitals            ...   77

Determined orbital ranges:
   Internal       0 -   17 (  18 orbitals)
   Active        18 -   22 (   5 orbitals)
   External      23 -   76 (  54 orbitals)
Number of rotation parameters      ...   1332

CI-STEP:
CI strategy                         ... General CI
Number of multiplicity blocks       ...    2
BLOCK  0 WEIGHT=   0.5000
  Multiplicity                      ...    4
  #(Configurations)                 ...   10
  #(CSFs)                           ...   10
  #(Roots)                          ...   10
    ROOT=0 WEIGHT=    0.050000
    ROOT=1 WEIGHT=    0.050000
    ROOT=2 WEIGHT=    0.050000
    ROOT=3 WEIGHT=    0.050000
    ROOT=4 WEIGHT=    0.050000
    ROOT=5 WEIGHT=    0.050000
    ROOT=6 WEIGHT=    0.050000
    ROOT=7 WEIGHT=    0.050000
    ROOT=8 WEIGHT=    0.050000
    ROOT=9 WEIGHT=    0.050000

BLOCK  1 WEIGHT=   0.5000
  Multiplicity                      ...    2
  #(Configurations)                 ...   30
  #(CSFs)                           ...   40
  #(Roots)                          ...   40
    ROOT=0 WEIGHT=    0.012500
    ROOT=1 WEIGHT=    0.012500
    ROOT=2 WEIGHT=    0.012500
    ROOT=3 WEIGHT=    0.012500
    ROOT=4 WEIGHT=    0.012500
    ROOT=5 WEIGHT=    0.012500
    ROOT=6 WEIGHT=    0.012500
    ROOT=7 WEIGHT=    0.012500
    ROOT=8 WEIGHT=    0.012500
    ROOT=9 WEIGHT=    0.012500
    ROOT=10 WEIGHT=    0.012500
    ROOT=11 WEIGHT=    0.012500
    ROOT=12 WEIGHT=    0.012500
    ROOT=13 WEIGHT=    0.012500
    ROOT=14 WEIGHT=    0.012500
    ROOT=15 WEIGHT=    0.012500
    ROOT=16 WEIGHT=    0.012500
    ROOT=17 WEIGHT=    0.012500
    ROOT=18 WEIGHT=    0.012500
    ROOT=19 WEIGHT=    0.012500
    ROOT=20 WEIGHT=    0.012500
    ROOT=21 WEIGHT=    0.012500
    ROOT=22 WEIGHT=    0.012500
    ROOT=23 WEIGHT=    0.012500
    ROOT=24 WEIGHT=    0.012500
    ROOT=25 WEIGHT=    0.012500
    ROOT=26 WEIGHT=    0.012500
    ROOT=27 WEIGHT=    0.012500
    ROOT=28 WEIGHT=    0.012500
    ROOT=29 WEIGHT=    0.012500
    ROOT=30 WEIGHT=    0.012500
    ROOT=31 WEIGHT=    0.012500
    ROOT=32 WEIGHT=    0.012500
    ROOT=33 WEIGHT=    0.012500
    ROOT=34 WEIGHT=    0.012500
    ROOT=35 WEIGHT=    0.012500
    ROOT=36 WEIGHT=    0.012500
    ROOT=37 WEIGHT=    0.012500
    ROOT=38 WEIGHT=    0.012500
    ROOT=39 WEIGHT=    0.012500

  PrintLevel                        ...    1
  N(GuessMat)                       ...       512
  MaxDim(CI)                        ...        10
  MaxIter(CI)                       ...        64
  Energy Tolerance CI               ...  1.00e-08
  Residual Tolerance CI             ...  1.00e-08
  Shift(CI)                         ...  1.00e-04

INTEGRAL-TRANSFORMATION-STEP:
  Algorithm                         ... EXACT

ORBITAL-IMPROVEMENT-STEP:
  MaxMacroIter 1 detected                >>> CAS-CI. Check your FINAL ORBITAL options!

SCF-SETTINGS:
  Incremental                       ... on
  RIJCOSX approximation             ... off
  RI-JK approximation               ... off
  AO integral handling              ... DIRECT
  Integral Neglect Thresh           ...  1.00e-10
  Primitive cutoff TCut             ...  1.00e-11
  Energy convergence tolerance      ...  1.00e-07
  Orbital gradient convergence      ...  1.00e-03
  Max. number of iterations         ...         1  


FINAL ORBITALS:
  Active   Orbitals                 ... unchanged 
  Internal Orbitals                 ... unchanged 
  External Orbitals                 ... unchanged 

------------------
CAS-SCF ITERATIONS
------------------


MACRO-ITERATION   1: 
   --- Inactive Energy E0 = -4037.63131324 Eh
   --- All densities will be recomputed
CI-ITERATION   0: 
 -4043.502085467   0.000000000003 (    0.00)
 -4043.494702195   0.000000000004
 -4043.492198321   0.000000000002
 -4043.467727102   0.000000000004
 -4043.098590746   0.000000000003
 -4043.098590745   0.000000000002
 -4043.098590745   0.000000000004
 -4043.089925125   0.000000000005
 -4043.065453906   0.000000000004
 -4043.062950032   0.000000000003
   CI-PROBLEM SOLVED
   DENSITIES MADE
CI-ITERATION   0: 
 -4043.452707031   0.000000000010 (    0.00)
 -4043.451183850   0.000000000004
 -4043.450723932   0.000000000004
 -4043.448584148   0.000000000004
 -4043.448474400   0.000000000005
 -4043.448080546   0.000000000005
 -4043.447728664   0.000000000005
 -4043.446979790   0.000000000004
 -4043.445901651   0.000000000006
 -4043.435676465   0.000000000005
 -4043.435172922   0.000000000004
 -4043.432827338   0.000000000006
 -4043.423694513   0.000000000007
 -4043.423640938   0.000000000009
 -4043.423294564   0.000000000009
 -4043.412606212   0.000000000007
 -4043.378900076   0.000000000008
 -4043.366004915   0.000000000008
 -4043.363674192   0.000000000005
 -4043.357958825   0.000000000005
 -4043.054311181   0.000000000006
 -4043.054253508   0.000000000006
 -4043.053896084   0.000000000007
 -4043.047528557   0.000000000005
 -4043.044897680   0.000000000006
 -4043.040376525   0.000000000006
 -4043.039271864   0.000000000008
 -4043.038382266   0.000000000008
 -4043.035553192   0.000000000008
 -4043.027365732   0.000000000006
 -4043.027288458   0.000000000005
 -4043.027258682   0.000000000008
 -4043.027193639   0.000000000009
 -4043.019030607   0.000000000007
 -4043.016547627   0.000000000005
 -4042.961996875   0.000000000005
 -4042.557259438   0.000000000005
 -4042.557229729   0.000000000003
 -4042.557122511   0.000000000004
 -4042.556960585   0.000000000005
   CI-PROBLEM SOLVED
   DENSITIES MADE

                 <<<<<<<<<<<<<<<<<<INITIAL CI STATE CHECK>>>>>>>>>>>>>>>>>>

BLOCK  0 MULT= 4 NROOTS=10 
ROOT   0:  E=   -4043.5020854666 Eh
      0.51217 [     9]: 00111
      0.37433 [     8]: 01011
      0.08628 [     7]: 01101
      0.02722 [     6]: 01110
ROOT   1:  E=   -4043.4947021949 Eh  0.201 eV   1620.4 cm**-1
      0.43291 [     6]: 01110
      0.26621 [     8]: 01011
      0.26202 [     9]: 00111
      0.03886 [     7]: 01101
ROOT   2:  E=   -4043.4921983206 Eh  0.269 eV   2170.0 cm**-1
      0.87384 [     7]: 01101
      0.10294 [     9]: 00111
      0.01249 [     6]: 01110
      0.01074 [     8]: 01011
ROOT   3:  E=   -4043.4677271018 Eh  0.935 eV   7540.8 cm**-1
      0.52738 [     6]: 01110
      0.34872 [     8]: 01011
      0.12288 [     9]: 00111
ROOT   4:  E=   -4043.0985907455 Eh 10.980 eV  88556.9 cm**-1
      0.57660 [     4]: 10101
      0.22230 [     5]: 10011
      0.15862 [     3]: 10110
      0.03140 [     0]: 11100
      0.00612 [     1]: 11010
      0.00495 [     2]: 11001
ROOT   5:  E=   -4043.0985907454 Eh 10.980 eV  88556.9 cm**-1
      0.35552 [     5]: 10011
      0.28291 [     1]: 11010
      0.26661 [     2]: 11001
      0.08593 [     4]: 10101
      0.00560 [     3]: 10110
      0.00343 [     0]: 11100
ROOT   6:  E=   -4043.0985907453 Eh 10.980 eV  88556.9 cm**-1
      0.70256 [     0]: 11100
      0.13287 [     2]: 11001
      0.12986 [     4]: 10101
      0.02106 [     5]: 10011
      0.00848 [     3]: 10110
      0.00518 [     1]: 11010
ROOT   7:  E=   -4043.0899251249 Eh 11.215 eV  90458.7 cm**-1
      0.38011 [     5]: 10011
      0.30292 [     1]: 11010
      0.22387 [     3]: 10110
      0.03688 [     2]: 11001
      0.02917 [     4]: 10101
      0.02704 [     0]: 11100
ROOT   8:  E=   -4043.0654539061 Eh 11.881 eV  95829.6 cm**-1
      0.37595 [     1]: 11010
      0.34342 [     3]: 10110
      0.17751 [     2]: 11001
      0.09947 [     4]: 10101
ROOT   9:  E=   -4043.0629500318 Eh 11.949 eV  96379.1 cm**-1
      0.38118 [     2]: 11001
      0.26001 [     3]: 10110
      0.23370 [     0]: 11100
      0.07897 [     4]: 10101
      0.02691 [     1]: 11010
      0.01923 [     5]: 10011

BLOCK  1 MULT= 2 NROOTS=40 
ROOT   0:  E=   -4043.4527070311 Eh
      0.31360 [    26]: 00111
      0.23187 [    19]: 01101
      0.14758 [    21]: 01011
      0.08782 [    20]: 01020
      0.05291 [    18]: 01110
      0.05174 [    29]: 00012
      0.03671 [    28]: 00021
      0.02484 [    22]: 01002
      0.02149 [    23]: 00210
      0.01403 [    14]: 02100
      0.01002 [    24]: 00201
      0.00305 [    16]: 02001
ROOT   1:  E=   -4043.4511838502 Eh  0.041 eV    334.3 cm**-1
      0.18168 [    18]: 01110
      0.16344 [    27]: 00102
      0.14260 [    28]: 00021
      0.09785 [    14]: 02100
      0.09451 [    21]: 01011
      0.08609 [    26]: 00111
      0.08045 [    24]: 00201
      0.06972 [    19]: 01101
      0.04382 [    22]: 01002
      0.01895 [    16]: 02001
      0.00859 [    17]: 01200
      0.00684 [    20]: 01020
      0.00328 [    25]: 00120
ROOT   2:  E=   -4043.4507239324 Eh  0.054 eV    435.2 cm**-1
      0.31811 [    26]: 00111
      0.13762 [    21]: 01011
      0.10026 [    17]: 01200
      0.09895 [    29]: 00012
      0.08264 [    27]: 00102
      0.07839 [    14]: 02100
      0.03329 [    19]: 01101
      0.03225 [    15]: 02010
      0.02979 [    16]: 02001
      0.02813 [    22]: 01002
      0.02741 [    24]: 00201
      0.01930 [    18]: 01110
      0.01182 [    20]: 01020
ROOT   3:  E=   -4043.4485841483 Eh  0.112 eV    904.9 cm**-1
      0.26491 [    21]: 01011
      0.14099 [    26]: 00111
      0.07695 [    23]: 00210
      0.06649 [    19]: 01101
      0.06056 [    17]: 01200
      0.06017 [    25]: 00120
      0.05881 [    14]: 02100
      0.04309 [    15]: 02010
      0.04149 [    27]: 00102
      0.04041 [    18]: 01110
      0.03970 [    24]: 00201
      0.03957 [    20]: 01020
      0.02315 [    22]: 01002
      0.02149 [    29]: 00012
      0.01609 [    28]: 00021
      0.00489 [    16]: 02001
ROOT   4:  E=   -4043.4484744002 Eh  0.115 eV    929.0 cm**-1
      0.23049 [    19]: 01101
      0.18602 [    29]: 00012
      0.14029 [    17]: 01200
      0.09134 [    27]: 00102
      0.07252 [    24]: 00201
      0.05641 [    16]: 02001
      0.05497 [    14]: 02100
      0.03935 [    26]: 00111
      0.03071 [    25]: 00120
      0.01920 [    22]: 01002
      0.01879 [    23]: 00210
      0.01822 [    21]: 01011
      0.01457 [    15]: 02010
      0.01255 [    18]: 01110
      0.00816 [    20]: 01020
      0.00432 [    28]: 00021
ROOT   5:  E=   -4043.4480805459 Eh  0.126 eV   1015.4 cm**-1
      0.23681 [    19]: 01101
      0.18749 [    18]: 01110
      0.11091 [    28]: 00021
      0.09037 [    17]: 01200
      0.07809 [    14]: 02100
      0.07254 [    21]: 01011
      0.05257 [    24]: 00201
      0.05144 [    16]: 02001
      0.03347 [    25]: 00120
      0.03222 [    26]: 00111
      0.01663 [    20]: 01020
      0.01323 [    15]: 02010
      0.01260 [    22]: 01002
      0.01096 [    23]: 00210
ROOT   6:  E=   -4043.4477286640 Eh  0.135 eV   1092.6 cm**-1
      0.26416 [    24]: 00201
      0.22835 [    19]: 01101
      0.16550 [    16]: 02001
      0.13030 [    21]: 01011
      0.06713 [    26]: 00111
      0.04082 [    27]: 00102
      0.03317 [    14]: 02100
      0.02836 [    15]: 02010
      0.02171 [    18]: 01110
      0.00605 [    23]: 00210
      0.00491 [    28]: 00021
      0.00406 [    29]: 00012
      0.00271 [    20]: 01020
ROOT   7:  E=   -4043.4469797902 Eh  0.156 eV   1257.0 cm**-1
      0.20427 [    19]: 01101
      0.16758 [    28]: 00021
      0.12513 [    27]: 00102
      0.07533 [    22]: 01002
      0.06040 [    15]: 02010
      0.05652 [    26]: 00111
      0.05471 [    24]: 00201
      0.04824 [    25]: 00120
      0.04673 [    17]: 01200
      0.04035 [    18]: 01110
      0.03516 [    21]: 01011
      0.02861 [    14]: 02100
      0.02423 [    29]: 00012
      0.01752 [    16]: 02001
      0.00846 [    23]: 00210
      0.00626 [    20]: 01020
ROOT   8:  E=   -4043.4459016512 Eh  0.185 eV   1493.6 cm**-1
      0.22144 [    29]: 00012
      0.17983 [    26]: 00111
      0.13197 [    18]: 01110
      0.11985 [    21]: 01011
      0.08008 [    23]: 00210
      0.05871 [    15]: 02010
      0.04838 [    24]: 00201
      0.04256 [    19]: 01101
      0.03730 [    16]: 02001
      0.03154 [    27]: 00102
      0.01492 [    22]: 01002
      0.01391 [    20]: 01020
      0.01141 [    17]: 01200
      0.00656 [    14]: 02100
ROOT   9:  E=   -4043.4356764653 Eh  0.463 eV   3737.8 cm**-1
      0.16556 [    26]: 00111
      0.14867 [    21]: 01011
      0.12678 [    20]: 01020
      0.11509 [    28]: 00021
      0.10671 [    15]: 02010
      0.10465 [    23]: 00210
      0.08122 [    25]: 00120
      0.05285 [    18]: 01110
      0.04176 [    19]: 01101
      0.03191 [    22]: 01002
      0.00946 [    29]: 00012
      0.00695 [    17]: 01200
ROOT  10:  E=   -4043.4351729216 Eh  0.477 eV   3848.3 cm**-1
      0.19562 [    17]: 01200
      0.18493 [    26]: 00111
      0.12449 [    29]: 00012
      0.11719 [    22]: 01002
      0.08742 [    21]: 01011
      0.08489 [    14]: 02100
      0.04174 [    15]: 02010
      0.03910 [    16]: 02001
      0.03370 [    27]: 00102
      0.03246 [    24]: 00201
      0.02973 [    19]: 01101
      0.00791 [    20]: 01020
      0.00695 [    28]: 00021
      0.00651 [    18]: 01110
ROOT  11:  E=   -4043.4328273380 Eh  0.541 eV   4363.1 cm**-1
      0.16875 [    18]: 01110
      0.16719 [    21]: 01011
      0.14930 [    14]: 02100
      0.13124 [    28]: 00021
      0.07442 [    26]: 00111
      0.06958 [    24]: 00201
      0.06023 [    27]: 00102
      0.05736 [    15]: 02010
      0.03605 [    20]: 01020
      0.03576 [    23]: 00210
      0.02257 [    17]: 01200
      0.01364 [    16]: 02001
      0.00949 [    19]: 01101
ROOT  12:  E=   -4043.4236945132 Eh  0.789 eV   6367.5 cm**-1
      0.20686 [    21]: 01011
      0.16915 [    15]: 02010
      0.16606 [    26]: 00111
      0.11089 [    23]: 00210
      0.09077 [    19]: 01101
      0.07065 [    25]: 00120
      0.06178 [    20]: 01020
      0.03261 [    18]: 01110
      0.02740 [    14]: 02100
      0.01848 [    22]: 01002
      0.01461 [    17]: 01200
      0.01304 [    27]: 00102
      0.00625 [    29]: 00012
      0.00428 [    28]: 00021
      0.00405 [    16]: 02001
ROOT  13:  E=   -4043.4236409376 Eh  0.791 eV   6379.3 cm**-1
      0.57709 [    18]: 01110
      0.10719 [    29]: 00012
      0.08379 [    22]: 01002
      0.06909 [    21]: 01011
      0.03918 [    27]: 00102
      0.02765 [    25]: 00120
      0.01914 [    19]: 01101
      0.01856 [    15]: 02010
      0.01381 [    17]: 01200
      0.01217 [    16]: 02001
      0.00727 [    28]: 00021
      0.00722 [    26]: 00111
      0.00665 [    20]: 01020
      0.00521 [    23]: 00210
      0.00319 [    24]: 00201
ROOT  14:  E=   -4043.4232945636 Eh  0.800 eV   6455.3 cm**-1
      0.23491 [    19]: 01101
      0.22715 [    18]: 01110
      0.12160 [    28]: 00021
      0.06937 [    21]: 01011
      0.06428 [    20]: 01020
      0.06216 [    27]: 00102
      0.05028 [    14]: 02100
      0.04635 [    17]: 01200
      0.03765 [    26]: 00111
      0.02719 [    25]: 00120
      0.02558 [    16]: 02001
      0.02257 [    22]: 01002
      0.00300 [    15]: 02010
      0.00286 [    24]: 00201
ROOT  15:  E=   -4043.4126062118 Eh  1.091 eV   8801.1 cm**-1
      0.24531 [    20]: 01020
      0.15938 [    19]: 01101
      0.13503 [    25]: 00120
      0.12781 [    18]: 01110
      0.08036 [    21]: 01011
      0.06493 [    22]: 01002
      0.03725 [    17]: 01200
      0.03249 [    26]: 00111
      0.03094 [    14]: 02100
      0.02279 [    27]: 00102
      0.02004 [    16]: 02001
      0.01656 [    23]: 00210
      0.01256 [    15]: 02010
      0.00977 [    24]: 00201
      0.00288 [    28]: 00021
ROOT  16:  E=   -4043.3789000757 Eh  2.008 eV  16198.8 cm**-1
      0.21513 [    25]: 00120
      0.17317 [    16]: 02001
      0.09616 [    24]: 00201
      0.09565 [    21]: 01011
      0.07709 [    28]: 00021
      0.06896 [    18]: 01110
      0.06882 [    22]: 01002
      0.06606 [    27]: 00102
      0.04405 [    26]: 00111
      0.02761 [    23]: 00210
      0.02270 [    15]: 02010
      0.01662 [    20]: 01020
      0.00912 [    14]: 02100
      0.00871 [    17]: 01200
      0.00603 [    19]: 01101
ROOT  17:  E=   -4043.3660049147 Eh  2.359 eV  19028.9 cm**-1
      0.32676 [    23]: 00210
      0.27350 [    15]: 02010
      0.13427 [    29]: 00012
      0.08336 [    22]: 01002
      0.05686 [    16]: 02001
      0.03371 [    20]: 01020
      0.02414 [    18]: 01110
      0.01914 [    19]: 01101
      0.01188 [    25]: 00120
      0.01055 [    24]: 00201
      0.00731 [    21]: 01011
      0.00731 [    26]: 00111
      0.00642 [    27]: 00102
ROOT  18:  E=   -4043.3636741920 Eh  2.423 eV  19540.4 cm**-1
      0.21697 [    16]: 02001
      0.12314 [    24]: 00201
      0.10683 [    14]: 02100
      0.09487 [    23]: 00210
      0.09199 [    22]: 01002
      0.08568 [    17]: 01200
      0.06824 [    25]: 00120
      0.04770 [    27]: 00102
      0.04483 [    28]: 00021
      0.04165 [    20]: 01020
      0.02849 [    21]: 01011
      0.01865 [    18]: 01110
      0.01604 [    19]: 01101
      0.00886 [    26]: 00111
ROOT  19:  E=   -4043.3579588251 Eh  2.578 eV  20794.8 cm**-1
      0.17941 [    25]: 00120
      0.17117 [    22]: 01002
      0.16403 [    20]: 01020
      0.10638 [    17]: 01200
      0.08742 [    14]: 02100
      0.06737 [    27]: 00102
      0.05149 [    16]: 02001
      0.05140 [    23]: 00210
      0.03896 [    15]: 02010
      0.03286 [    26]: 00111
      0.02568 [    19]: 01101
      0.01504 [    21]: 01011
      0.00311 [    18]: 01110
ROOT  20:  E=   -4043.0543111809 Eh 10.841 eV  87437.8 cm**-1
      0.49551 [    12]: 10011
      0.28530 [     5]: 11100
      0.12034 [     9]: 10110
      0.07336 [     6]: 11010
      0.02233 [    10]: 10101
ROOT  21:  E=   -4043.0542535078 Eh 10.842 eV  87450.4 cm**-1
      0.48789 [    10]: 10101
      0.21523 [     6]: 11010
      0.20137 [     7]: 11001
      0.03773 [     9]: 10110
      0.02790 [     5]: 11100
      0.02788 [    12]: 10011
ROOT  22:  E=   -4043.0538960841 Eh 10.852 eV  87528.9 cm**-1
      0.42593 [     5]: 11100
      0.27867 [    10]: 10101
      0.19898 [     7]: 11001
      0.07449 [    12]: 10011
      0.01275 [     9]: 10110
      0.00610 [     6]: 11010
ROOT  23:  E=   -4043.0475285569 Eh 11.025 eV  88926.4 cm**-1
      0.30072 [    12]: 10011
      0.18593 [     8]: 10200
      0.17517 [     4]: 12000
      0.06401 [     7]: 11001
      0.06343 [    10]: 10101
      0.05303 [     5]: 11100
      0.04647 [     6]: 11010
      0.03814 [    13]: 10002
      0.03584 [     9]: 10110
      0.03336 [    11]: 10020
ROOT  24:  E=   -4043.0448976795 Eh 11.097 eV  89503.8 cm**-1
      0.37764 [    12]: 10011
      0.30215 [     6]: 11010
      0.22345 [     9]: 10110
      0.03736 [     7]: 11001
      0.02970 [    10]: 10101
      0.02622 [     5]: 11100
ROOT  25:  E=   -4043.0403765255 Eh 11.220 eV  90496.1 cm**-1
      0.44911 [    10]: 10101
      0.23241 [     5]: 11100
      0.10111 [     7]: 11001
      0.09237 [    13]: 10002
      0.06253 [     4]: 12000
      0.03388 [    11]: 10020
      0.01977 [     6]: 11010
      0.00354 [     9]: 10110
ROOT  26:  E=   -4043.0392718643 Eh 11.250 eV  90738.5 cm**-1
      0.31093 [    13]: 10002
      0.30484 [     5]: 11100
      0.12242 [     6]: 11010
      0.10037 [     8]: 10200
      0.05672 [    12]: 10011
      0.04122 [     9]: 10110
      0.03942 [    11]: 10020
      0.01790 [     7]: 11001
ROOT  27:  E=   -4043.0383822660 Eh 11.274 eV  90933.8 cm**-1
      0.26645 [    12]: 10011
      0.24628 [     9]: 10110
      0.18955 [     6]: 11010
      0.12691 [    10]: 10101
      0.12542 [     7]: 11001
      0.01868 [     8]: 10200
      0.01174 [     5]: 11100
      0.01148 [     4]: 12000
ROOT  28:  E=   -4043.0355531920 Eh 11.351 eV  91554.7 cm**-1
      0.38094 [    11]: 10020
      0.16678 [     6]: 11010
      0.09883 [    13]: 10002
      0.09099 [     5]: 11100
      0.08876 [    10]: 10101
      0.06765 [     7]: 11001
      0.05472 [    12]: 10011
      0.03755 [     8]: 10200
      0.01201 [     4]: 12000
ROOT  29:  E=   -4043.0273657320 Eh 11.574 eV  93351.6 cm**-1
      0.34085 [     7]: 11001
      0.25399 [     9]: 10110
      0.13222 [     6]: 11010
      0.09326 [    12]: 10011
      0.07979 [     8]: 10200
      0.05667 [    10]: 10101
      0.03462 [    11]: 10020
      0.00381 [     4]: 12000
      0.00293 [     5]: 11100
ROOT  30:  E=   -4043.0272884577 Eh 11.576 eV  93368.6 cm**-1
      0.26182 [     9]: 10110
      0.21056 [     6]: 11010
      0.16782 [     4]: 12000
      0.14503 [    13]: 10002
      0.11123 [    11]: 10020
      0.09283 [     8]: 10200
      0.00507 [    12]: 10011
      0.00274 [     7]: 11001
ROOT  31:  E=   -4043.0272586817 Eh 11.577 eV  93375.1 cm**-1
      0.28188 [     4]: 12000
      0.21433 [    12]: 10011
      0.18787 [     8]: 10200
      0.13045 [    10]: 10101
      0.06118 [     7]: 11001
      0.05493 [     9]: 10110
      0.03593 [    13]: 10002
      0.01502 [     5]: 11100
      0.00903 [     6]: 11010
      0.00848 [    11]: 10020
ROOT  32:  E=   -4043.0271936387 Eh 11.579 eV  93389.4 cm**-1
      0.28553 [     5]: 11100
      0.21712 [     7]: 11001
      0.11635 [    11]: 10020
      0.10183 [     6]: 11010
      0.10106 [     9]: 10110
      0.07789 [    10]: 10101
      0.04515 [     4]: 12000
      0.04302 [     8]: 10200
      0.00630 [    13]: 10002
      0.00468 [    12]: 10011
ROOT  33:  E=   -4043.0190306066 Eh 11.801 eV  95181.0 cm**-1
      0.37160 [     6]: 11010
      0.34039 [     9]: 10110
      0.17748 [     7]: 11001
      0.10018 [    10]: 10101
ROOT  34:  E=   -4043.0165476267 Eh 11.869 eV  95725.9 cm**-1
      0.37838 [     7]: 11001
      0.26017 [     9]: 10110
      0.22943 [     5]: 11100
      0.07802 [    10]: 10101
      0.02720 [     6]: 11010
      0.02023 [    12]: 10011
ROOT  35:  E=   -4042.9619968752 Eh 13.353 eV 107698.4 cm**-1
      0.26849 [    13]: 10002
      0.25174 [     8]: 10200
      0.24034 [    11]: 10020
      0.23663 [     4]: 12000
ROOT  36:  E=   -4042.5572594378 Eh 24.366 eV 196528.0 cm**-1
      0.43212 [     3]: 20001
      0.26573 [     1]: 20100
      0.26154 [     0]: 21000
      0.03879 [     2]: 20010
ROOT  37:  E=   -4042.5572297294 Eh 24.367 eV 196534.6 cm**-1
      0.87219 [     2]: 20010
      0.10274 [     0]: 21000
      0.01246 [     3]: 20001
      0.01072 [     1]: 20100
ROOT  38:  E=   -4042.5571225114 Eh 24.370 eV 196558.1 cm**-1
      0.51108 [     0]: 21000
      0.37353 [     1]: 20100
      0.08609 [     2]: 20010
      0.02716 [     3]: 20001
ROOT  39:  E=   -4042.5569605853 Eh 24.374 eV 196593.6 cm**-1
      0.52612 [     3]: 20001
      0.34789 [     1]: 20100
      0.12258 [     0]: 21000

                 <<<<<<<<<<<<<<<<<<INITIAL CI STATE CHECK>>>>>>>>>>>>>>>>>>

   E(CAS)= -4043.214009966 Eh DE=    0.000000e+00
   --- Energy gap subspaces: Ext-Act = -0.240   Act-Int = 2.034
   N(occ)=  0.60000 0.60000 0.60000 0.60000 0.60000
   ||g|| =     8.432732e+00 Max(G)=    4.129720e+00 Rot=73,0
--------------
CASSCF RESULTS
--------------

Final CASSCF energy       : -4043.214009966 Eh -110021.4466 eV

----------------
ORBITAL ENERGIES
----------------

  NO   OCC          E(Eh)            E(eV) 
   0   2.0000    -740.854073    -20159.6642 
   1   2.0000    -109.198130     -2971.4322 
   2   2.0000     -97.675572     -2657.8874 
   3   2.0000     -97.676195     -2657.9044 
   4   2.0000     -97.675448     -2657.8841 
   5   2.0000     -21.323209      -580.2340 
   6   2.0000     -17.426752      -474.2060 
   7   2.0000     -17.428783      -474.2613 
   8   2.0000     -17.424608      -474.1477 
   9   2.0000     -11.073670      -301.3299 
  10   2.0000     -11.072480      -301.2975 
  11   2.0000     -11.074616      -301.3556 
  12   2.0000     -11.073637      -301.3290 
  13   2.0000     -11.077174      -301.4252 
  14   2.0000      -4.527650      -123.2036 
  15   2.0000      -3.306800       -89.9826 
  16   2.0000      -3.310344       -90.0790 
  17   2.0000      -3.308001       -90.0153 
  18   0.6000      -0.910833       -24.7850 
  19   0.6000      -1.266580       -34.4654 
  20   0.6000      -1.270020       -34.5590 
  21   0.6000      -1.267474       -34.4897 
  22   0.6000      -1.273713       -34.6595 
  23   0.0000      -1.150946       -31.3188 
  24   0.0000      -0.598091       -16.2749 
  25   0.0000      -0.602008       -16.3815 
  26   0.0000      -0.601704       -16.3732 
  27   0.0000      -0.435732       -11.8569 
  28   0.0000      -0.404900       -11.0179 
  29   0.0000      -0.404484       -11.0066 
  30   0.0000      -0.402742       -10.9592 
  31   0.0000      -0.423166       -11.5149 
  32   0.0000      -0.424989       -11.5645 
  33   0.0000      -0.424839       -11.5605 
  34   0.0000      -0.427846       -11.6423 
  35   0.0000      -0.424484       -11.5508 
  36   0.0000      -0.075746        -2.0611 
  37   0.0000       0.084421         2.2972 
  38   0.0000       0.082859         2.2547 
  39   0.0000       0.085030         2.3138 
  40   0.0000       0.659652        17.9501 
  41   0.0000       0.660872        17.9832 
  42   0.0000       0.652329        17.7508 
  43   0.0000       0.659419        17.9437 
  44   0.0000       0.658687        17.9238 
  45   0.0000       0.692882        18.8543 
  46   0.0000       0.693656        18.8753 
  47   0.0000       0.694061        18.8864 
  48   0.0000       0.696149        18.9432 
  49   0.0000       0.694116        18.8879 
  50   0.0000       0.696208        18.9448 
  51   0.0000       0.694675        18.9031 
  52   0.0000       1.643678        44.7267 
  53   0.0000       2.756706        75.0138 
  54   0.0000       2.754979        74.9668 
  55   0.0000       2.755969        74.9937 
  56   0.0000       5.937576       161.5696 
  57   0.0000       5.945309       161.7801 
  58   0.0000       5.945778       161.7928 
  59   0.0000       5.943472       161.7301 
  60   0.0000       5.942448       161.7022 
  61   0.0000       8.749906       238.0971 
  62   0.0000      16.037893       436.4132 
  63   0.0000      16.027614       436.1335 
  64   0.0000      16.030361       436.2083 
  65   0.0000      36.850900      1002.7640 
  66   0.0000      75.130573      2044.4068 
  67   0.0000      75.130621      2044.4081 
  68   0.0000      75.137356      2044.5914 
  69   0.0000     137.916077      3752.8873 
  70   0.0000     331.804173      9028.8506 
  71   0.0000     331.806584      9028.9162 
  72   0.0000     331.803573      9028.8342 
  73   0.0000     456.117998     12411.6017 
  74   0.0000    1335.133001     36330.8160 
  75   0.0000    3490.669736     94985.9525 
  76   0.0000   10532.139695    286594.0913 


---------------------------------------------
CAS-SCF STATES FOR BLOCK  0 MULT= 4 NROOTS=10
---------------------------------------------

ROOT   0:  E=   -4043.5020854666 Eh
      0.51217 [     9]: 00111
      0.37433 [     8]: 01011
      0.08628 [     7]: 01101
      0.02722 [     6]: 01110
ROOT   1:  E=   -4043.4947021949 Eh  0.201 eV   1620.4 cm**-1
      0.43291 [     6]: 01110
      0.26621 [     8]: 01011
      0.26202 [     9]: 00111
      0.03886 [     7]: 01101
ROOT   2:  E=   -4043.4921983206 Eh  0.269 eV   2170.0 cm**-1
      0.87384 [     7]: 01101
      0.10294 [     9]: 00111
      0.01249 [     6]: 01110
      0.01074 [     8]: 01011
ROOT   3:  E=   -4043.4677271018 Eh  0.935 eV   7540.8 cm**-1
      0.52738 [     6]: 01110
      0.34872 [     8]: 01011
      0.12288 [     9]: 00111
ROOT   4:  E=   -4043.0985907455 Eh 10.980 eV  88556.9 cm**-1
      0.57660 [     4]: 10101
      0.22230 [     5]: 10011
      0.15862 [     3]: 10110
      0.03140 [     0]: 11100
      0.00612 [     1]: 11010
      0.00495 [     2]: 11001
ROOT   5:  E=   -4043.0985907454 Eh 10.980 eV  88556.9 cm**-1
      0.35552 [     5]: 10011
      0.28291 [     1]: 11010
      0.26661 [     2]: 11001
      0.08593 [     4]: 10101
      0.00560 [     3]: 10110
      0.00343 [     0]: 11100
ROOT   6:  E=   -4043.0985907453 Eh 10.980 eV  88556.9 cm**-1
      0.70256 [     0]: 11100
      0.13287 [     2]: 11001
      0.12986 [     4]: 10101
      0.02106 [     5]: 10011
      0.00848 [     3]: 10110
      0.00518 [     1]: 11010
ROOT   7:  E=   -4043.0899251249 Eh 11.215 eV  90458.7 cm**-1
      0.38011 [     5]: 10011
      0.30292 [     1]: 11010
      0.22387 [     3]: 10110
      0.03688 [     2]: 11001
      0.02917 [     4]: 10101
      0.02704 [     0]: 11100
ROOT   8:  E=   -4043.0654539061 Eh 11.881 eV  95829.6 cm**-1
      0.37595 [     1]: 11010
      0.34342 [     3]: 10110
      0.17751 [     2]: 11001
      0.09947 [     4]: 10101
ROOT   9:  E=   -4043.0629500318 Eh 11.949 eV  96379.1 cm**-1
      0.38118 [     2]: 11001
      0.26001 [     3]: 10110
      0.23370 [     0]: 11100
      0.07897 [     4]: 10101
      0.02691 [     1]: 11010
      0.01923 [     5]: 10011


---------------------------------------------
CAS-SCF STATES FOR BLOCK  1 MULT= 2 NROOTS=40
---------------------------------------------

ROOT   0:  E=   -4043.4527070311 Eh
      0.31360 [    26]: 00111
      0.23187 [    19]: 01101
      0.14758 [    21]: 01011
      0.08782 [    20]: 01020
      0.05291 [    18]: 01110
      0.05174 [    29]: 00012
      0.03671 [    28]: 00021
      0.02484 [    22]: 01002
      0.02149 [    23]: 00210
      0.01403 [    14]: 02100
      0.01002 [    24]: 00201
      0.00305 [    16]: 02001
ROOT   1:  E=   -4043.4511838502 Eh  0.041 eV    334.3 cm**-1
      0.18168 [    18]: 01110
      0.16344 [    27]: 00102
      0.14260 [    28]: 00021
      0.09785 [    14]: 02100
      0.09451 [    21]: 01011
      0.08609 [    26]: 00111
      0.08045 [    24]: 00201
      0.06972 [    19]: 01101
      0.04382 [    22]: 01002
      0.01895 [    16]: 02001
      0.00859 [    17]: 01200
      0.00684 [    20]: 01020
      0.00328 [    25]: 00120
ROOT   2:  E=   -4043.4507239324 Eh  0.054 eV    435.2 cm**-1
      0.31811 [    26]: 00111
      0.13762 [    21]: 01011
      0.10026 [    17]: 01200
      0.09895 [    29]: 00012
      0.08264 [    27]: 00102
      0.07839 [    14]: 02100
      0.03329 [    19]: 01101
      0.03225 [    15]: 02010
      0.02979 [    16]: 02001
      0.02813 [    22]: 01002
      0.02741 [    24]: 00201
      0.01930 [    18]: 01110
      0.01182 [    20]: 01020
ROOT   3:  E=   -4043.4485841483 Eh  0.112 eV    904.9 cm**-1
      0.26491 [    21]: 01011
      0.14099 [    26]: 00111
      0.07695 [    23]: 00210
      0.06649 [    19]: 01101
      0.06056 [    17]: 01200
      0.06017 [    25]: 00120
      0.05881 [    14]: 02100
      0.04309 [    15]: 02010
      0.04149 [    27]: 00102
      0.04041 [    18]: 01110
      0.03970 [    24]: 00201
      0.03957 [    20]: 01020
      0.02315 [    22]: 01002
      0.02149 [    29]: 00012
      0.01609 [    28]: 00021
      0.00489 [    16]: 02001
ROOT   4:  E=   -4043.4484744002 Eh  0.115 eV    929.0 cm**-1
      0.23049 [    19]: 01101
      0.18602 [    29]: 00012
      0.14029 [    17]: 01200
      0.09134 [    27]: 00102
      0.07252 [    24]: 00201
      0.05641 [    16]: 02001
      0.05497 [    14]: 02100
      0.03935 [    26]: 00111
      0.03071 [    25]: 00120
      0.01920 [    22]: 01002
      0.01879 [    23]: 00210
      0.01822 [    21]: 01011
      0.01457 [    15]: 02010
      0.01255 [    18]: 01110
      0.00816 [    20]: 01020
      0.00432 [    28]: 00021
ROOT   5:  E=   -4043.4480805459 Eh  0.126 eV   1015.4 cm**-1
      0.23681 [    19]: 01101
      0.18749 [    18]: 01110
      0.11091 [    28]: 00021
      0.09037 [    17]: 01200
      0.07809 [    14]: 02100
      0.07254 [    21]: 01011
      0.05257 [    24]: 00201
      0.05144 [    16]: 02001
      0.03347 [    25]: 00120
      0.03222 [    26]: 00111
      0.01663 [    20]: 01020
      0.01323 [    15]: 02010
      0.01260 [    22]: 01002
      0.01096 [    23]: 00210
ROOT   6:  E=   -4043.4477286640 Eh  0.135 eV   1092.6 cm**-1
      0.26416 [    24]: 00201
      0.22835 [    19]: 01101
      0.16550 [    16]: 02001
      0.13030 [    21]: 01011
      0.06713 [    26]: 00111
      0.04082 [    27]: 00102
      0.03317 [    14]: 02100
      0.02836 [    15]: 02010
      0.02171 [    18]: 01110
      0.00605 [    23]: 00210
      0.00491 [    28]: 00021
      0.00406 [    29]: 00012
      0.00271 [    20]: 01020
ROOT   7:  E=   -4043.4469797902 Eh  0.156 eV   1257.0 cm**-1
      0.20427 [    19]: 01101
      0.16758 [    28]: 00021
      0.12513 [    27]: 00102
      0.07533 [    22]: 01002
      0.06040 [    15]: 02010
      0.05652 [    26]: 00111
      0.05471 [    24]: 00201
      0.04824 [    25]: 00120
      0.04673 [    17]: 01200
      0.04035 [    18]: 01110
      0.03516 [    21]: 01011
      0.02861 [    14]: 02100
      0.02423 [    29]: 00012
      0.01752 [    16]: 02001
      0.00846 [    23]: 00210
      0.00626 [    20]: 01020
ROOT   8:  E=   -4043.4459016512 Eh  0.185 eV   1493.6 cm**-1
      0.22144 [    29]: 00012
      0.17983 [    26]: 00111
      0.13197 [    18]: 01110
      0.11985 [    21]: 01011
      0.08008 [    23]: 00210
      0.05871 [    15]: 02010
      0.04838 [    24]: 00201
      0.04256 [    19]: 01101
      0.03730 [    16]: 02001
      0.03154 [    27]: 00102
      0.01492 [    22]: 01002
      0.01391 [    20]: 01020
      0.01141 [    17]: 01200
      0.00656 [    14]: 02100
ROOT   9:  E=   -4043.4356764653 Eh  0.463 eV   3737.8 cm**-1
      0.16556 [    26]: 00111
      0.14867 [    21]: 01011
      0.12678 [    20]: 01020
      0.11509 [    28]: 00021
      0.10671 [    15]: 02010
      0.10465 [    23]: 00210
      0.08122 [    25]: 00120
      0.05285 [    18]: 01110
      0.04176 [    19]: 01101
      0.03191 [    22]: 01002
      0.00946 [    29]: 00012
      0.00695 [    17]: 01200
ROOT  10:  E=   -4043.4351729216 Eh  0.477 eV   3848.3 cm**-1
      0.19562 [    17]: 01200
      0.18493 [    26]: 00111
      0.12449 [    29]: 00012
      0.11719 [    22]: 01002
      0.08742 [    21]: 01011
      0.08489 [    14]: 02100
      0.04174 [    15]: 02010
      0.03910 [    16]: 02001
      0.03370 [    27]: 00102
      0.03246 [    24]: 00201
      0.02973 [    19]: 01101
      0.00791 [    20]: 01020
      0.00695 [    28]: 00021
      0.00651 [    18]: 01110
ROOT  11:  E=   -4043.4328273380 Eh  0.541 eV   4363.1 cm**-1
      0.16875 [    18]: 01110
      0.16719 [    21]: 01011
      0.14930 [    14]: 02100
      0.13124 [    28]: 00021
      0.07442 [    26]: 00111
      0.06958 [    24]: 00201
      0.06023 [    27]: 00102
      0.05736 [    15]: 02010
      0.03605 [    20]: 01020
      0.03576 [    23]: 00210
      0.02257 [    17]: 01200
      0.01364 [    16]: 02001
      0.00949 [    19]: 01101
ROOT  12:  E=   -4043.4236945132 Eh  0.789 eV   6367.5 cm**-1
      0.20686 [    21]: 01011
      0.16915 [    15]: 02010
      0.16606 [    26]: 00111
      0.11089 [    23]: 00210
      0.09077 [    19]: 01101
      0.07065 [    25]: 00120
      0.06178 [    20]: 01020
      0.03261 [    18]: 01110
      0.02740 [    14]: 02100
      0.01848 [    22]: 01002
      0.01461 [    17]: 01200
      0.01304 [    27]: 00102
      0.00625 [    29]: 00012
      0.00428 [    28]: 00021
      0.00405 [    16]: 02001
ROOT  13:  E=   -4043.4236409376 Eh  0.791 eV   6379.3 cm**-1
      0.57709 [    18]: 01110
      0.10719 [    29]: 00012
      0.08379 [    22]: 01002
      0.06909 [    21]: 01011
      0.03918 [    27]: 00102
      0.02765 [    25]: 00120
      0.01914 [    19]: 01101
      0.01856 [    15]: 02010
      0.01381 [    17]: 01200
      0.01217 [    16]: 02001
      0.00727 [    28]: 00021
      0.00722 [    26]: 00111
      0.00665 [    20]: 01020
      0.00521 [    23]: 00210
      0.00319 [    24]: 00201
ROOT  14:  E=   -4043.4232945636 Eh  0.800 eV   6455.3 cm**-1
      0.23491 [    19]: 01101
      0.22715 [    18]: 01110
      0.12160 [    28]: 00021
      0.06937 [    21]: 01011
      0.06428 [    20]: 01020
      0.06216 [    27]: 00102
      0.05028 [    14]: 02100
      0.04635 [    17]: 01200
      0.03765 [    26]: 00111
      0.02719 [    25]: 00120
      0.02558 [    16]: 02001
      0.02257 [    22]: 01002
      0.00300 [    15]: 02010
      0.00286 [    24]: 00201
ROOT  15:  E=   -4043.4126062118 Eh  1.091 eV   8801.1 cm**-1
      0.24531 [    20]: 01020
      0.15938 [    19]: 01101
      0.13503 [    25]: 00120
      0.12781 [    18]: 01110
      0.08036 [    21]: 01011
      0.06493 [    22]: 01002
      0.03725 [    17]: 01200
      0.03249 [    26]: 00111
      0.03094 [    14]: 02100
      0.02279 [    27]: 00102
      0.02004 [    16]: 02001
      0.01656 [    23]: 00210
      0.01256 [    15]: 02010
      0.00977 [    24]: 00201
      0.00288 [    28]: 00021
ROOT  16:  E=   -4043.3789000757 Eh  2.008 eV  16198.8 cm**-1
      0.21513 [    25]: 00120
      0.17317 [    16]: 02001
      0.09616 [    24]: 00201
      0.09565 [    21]: 01011
      0.07709 [    28]: 00021
      0.06896 [    18]: 01110
      0.06882 [    22]: 01002
      0.06606 [    27]: 00102
      0.04405 [    26]: 00111
      0.02761 [    23]: 00210
      0.02270 [    15]: 02010
      0.01662 [    20]: 01020
      0.00912 [    14]: 02100
      0.00871 [    17]: 01200
      0.00603 [    19]: 01101
ROOT  17:  E=   -4043.3660049147 Eh  2.359 eV  19028.9 cm**-1
      0.32676 [    23]: 00210
      0.27350 [    15]: 02010
      0.13427 [    29]: 00012
      0.08336 [    22]: 01002
      0.05686 [    16]: 02001
      0.03371 [    20]: 01020
      0.02414 [    18]: 01110
      0.01914 [    19]: 01101
      0.01188 [    25]: 00120
      0.01055 [    24]: 00201
      0.00731 [    21]: 01011
      0.00731 [    26]: 00111
      0.00642 [    27]: 00102
ROOT  18:  E=   -4043.3636741920 Eh  2.423 eV  19540.4 cm**-1
      0.21697 [    16]: 02001
      0.12314 [    24]: 00201
      0.10683 [    14]: 02100
      0.09487 [    23]: 00210
      0.09199 [    22]: 01002
      0.08568 [    17]: 01200
      0.06824 [    25]: 00120
      0.04770 [    27]: 00102
      0.04483 [    28]: 00021
      0.04165 [    20]: 01020
      0.02849 [    21]: 01011
      0.01865 [    18]: 01110
      0.01604 [    19]: 01101
      0.00886 [    26]: 00111
ROOT  19:  E=   -4043.3579588251 Eh  2.578 eV  20794.8 cm**-1
      0.17941 [    25]: 00120
      0.17117 [    22]: 01002
      0.16403 [    20]: 01020
      0.10638 [    17]: 01200
      0.08742 [    14]: 02100
      0.06737 [    27]: 00102
      0.05149 [    16]: 02001
      0.05140 [    23]: 00210
      0.03896 [    15]: 02010
      0.03286 [    26]: 00111
      0.02568 [    19]: 01101
      0.01504 [    21]: 01011
      0.00311 [    18]: 01110
ROOT  20:  E=   -4043.0543111809 Eh 10.841 eV  87437.8 cm**-1
      0.49551 [    12]: 10011
      0.28530 [     5]: 11100
      0.12034 [     9]: 10110
      0.07336 [     6]: 11010
      0.02233 [    10]: 10101
ROOT  21:  E=   -4043.0542535078 Eh 10.842 eV  87450.4 cm**-1
      0.48789 [    10]: 10101
      0.21523 [     6]: 11010
      0.20137 [     7]: 11001
      0.03773 [     9]: 10110
      0.02790 [     5]: 11100
      0.02788 [    12]: 10011
ROOT  22:  E=   -4043.0538960841 Eh 10.852 eV  87528.9 cm**-1
      0.42593 [     5]: 11100
      0.27867 [    10]: 10101
      0.19898 [     7]: 11001
      0.07449 [    12]: 10011
      0.01275 [     9]: 10110
      0.00610 [     6]: 11010
ROOT  23:  E=   -4043.0475285569 Eh 11.025 eV  88926.4 cm**-1
      0.30072 [    12]: 10011
      0.18593 [     8]: 10200
      0.17517 [     4]: 12000
      0.06401 [     7]: 11001
      0.06343 [    10]: 10101
      0.05303 [     5]: 11100
      0.04647 [     6]: 11010
      0.03814 [    13]: 10002
      0.03584 [     9]: 10110
      0.03336 [    11]: 10020
ROOT  24:  E=   -4043.0448976795 Eh 11.097 eV  89503.8 cm**-1
      0.37764 [    12]: 10011
      0.30215 [     6]: 11010
      0.22345 [     9]: 10110
      0.03736 [     7]: 11001
      0.02970 [    10]: 10101
      0.02622 [     5]: 11100
ROOT  25:  E=   -4043.0403765255 Eh 11.220 eV  90496.1 cm**-1
      0.44911 [    10]: 10101
      0.23241 [     5]: 11100
      0.10111 [     7]: 11001
      0.09237 [    13]: 10002
      0.06253 [     4]: 12000
      0.03388 [    11]: 10020
      0.01977 [     6]: 11010
      0.00354 [     9]: 10110
ROOT  26:  E=   -4043.0392718643 Eh 11.250 eV  90738.5 cm**-1
      0.31093 [    13]: 10002
      0.30484 [     5]: 11100
      0.12242 [     6]: 11010
      0.10037 [     8]: 10200
      0.05672 [    12]: 10011
      0.04122 [     9]: 10110
      0.03942 [    11]: 10020
      0.01790 [     7]: 11001
ROOT  27:  E=   -4043.0383822660 Eh 11.274 eV  90933.8 cm**-1
      0.26645 [    12]: 10011
      0.24628 [     9]: 10110
      0.18955 [     6]: 11010
      0.12691 [    10]: 10101
      0.12542 [     7]: 11001
      0.01868 [     8]: 10200
      0.01174 [     5]: 11100
      0.01148 [     4]: 12000
ROOT  28:  E=   -4043.0355531920 Eh 11.351 eV  91554.7 cm**-1
      0.38094 [    11]: 10020
      0.16678 [     6]: 11010
      0.09883 [    13]: 10002
      0.09099 [     5]: 11100
      0.08876 [    10]: 10101
      0.06765 [     7]: 11001
      0.05472 [    12]: 10011
      0.03755 [     8]: 10200
      0.01201 [     4]: 12000
ROOT  29:  E=   -4043.0273657320 Eh 11.574 eV  93351.6 cm**-1
      0.34085 [     7]: 11001
      0.25399 [     9]: 10110
      0.13222 [     6]: 11010
      0.09326 [    12]: 10011
      0.07979 [     8]: 10200
      0.05667 [    10]: 10101
      0.03462 [    11]: 10020
      0.00381 [     4]: 12000
      0.00293 [     5]: 11100
ROOT  30:  E=   -4043.0272884577 Eh 11.576 eV  93368.6 cm**-1
      0.26182 [     9]: 10110
      0.21056 [     6]: 11010
      0.16782 [     4]: 12000
      0.14503 [    13]: 10002
      0.11123 [    11]: 10020
      0.09283 [     8]: 10200
      0.00507 [    12]: 10011
      0.00274 [     7]: 11001
ROOT  31:  E=   -4043.0272586817 Eh 11.577 eV  93375.1 cm**-1
      0.28188 [     4]: 12000
      0.21433 [    12]: 10011
      0.18787 [     8]: 10200
      0.13045 [    10]: 10101
      0.06118 [     7]: 11001
      0.05493 [     9]: 10110
      0.03593 [    13]: 10002
      0.01502 [     5]: 11100
      0.00903 [     6]: 11010
      0.00848 [    11]: 10020
ROOT  32:  E=   -4043.0271936387 Eh 11.579 eV  93389.4 cm**-1
      0.28553 [     5]: 11100
      0.21712 [     7]: 11001
      0.11635 [    11]: 10020
      0.10183 [     6]: 11010
      0.10106 [     9]: 10110
      0.07789 [    10]: 10101
      0.04515 [     4]: 12000
      0.04302 [     8]: 10200
      0.00630 [    13]: 10002
      0.00468 [    12]: 10011
ROOT  33:  E=   -4043.0190306066 Eh 11.801 eV  95181.0 cm**-1
      0.37160 [     6]: 11010
      0.34039 [     9]: 10110
      0.17748 [     7]: 11001
      0.10018 [    10]: 10101
ROOT  34:  E=   -4043.0165476267 Eh 11.869 eV  95725.9 cm**-1
      0.37838 [     7]: 11001
      0.26017 [     9]: 10110
      0.22943 [     5]: 11100
      0.07802 [    10]: 10101
      0.02720 [     6]: 11010
      0.02023 [    12]: 10011
ROOT  35:  E=   -4042.9619968752 Eh 13.353 eV 107698.4 cm**-1
      0.26849 [    13]: 10002
      0.25174 [     8]: 10200
      0.24034 [    11]: 10020
      0.23663 [     4]: 12000
ROOT  36:  E=   -4042.5572594378 Eh 24.366 eV 196528.0 cm**-1
      0.43212 [     3]: 20001
      0.26573 [     1]: 20100
      0.26154 [     0]: 21000
      0.03879 [     2]: 20010
ROOT  37:  E=   -4042.5572297294 Eh 24.367 eV 196534.6 cm**-1
      0.87219 [     2]: 20010
      0.10274 [     0]: 21000
      0.01246 [     3]: 20001
      0.01072 [     1]: 20100
ROOT  38:  E=   -4042.5571225114 Eh 24.370 eV 196558.1 cm**-1
      0.51108 [     0]: 21000
      0.37353 [     1]: 20100
      0.08609 [     2]: 20010
      0.02716 [     3]: 20001
ROOT  39:  E=   -4042.5569605853 Eh 24.374 eV 196593.6 cm**-1
      0.52612 [     3]: 20001
      0.34789 [     1]: 20100
      0.12258 [     0]: 21000


-----------------------------
SA-CASSCF TRANSITION ENERGIES
------------------------------

LOWEST ROOT (ROOT 0 ,MULT 4) =  -4043.502085467 Eh -110029.286 eV

STATE   ROOT MULT  DE/a.u.    DE/eV    DE/cm**-1
   1:    1    4   0.007383     0.201   1620.4
   2:    2    4   0.009887     0.269   2170.0
   3:    3    4   0.034358     0.935   7540.8
   4:    0    2   0.049378     1.344  10837.3
   5:    1    2   0.050902     1.385  11171.6
   6:    2    2   0.051362     1.398  11272.6
   7:    3    2   0.053501     1.456  11742.2
   8:    4    2   0.053611     1.459  11766.3
   9:    5    2   0.054005     1.470  11852.7
  10:    6    2   0.054357     1.479  11929.9
  11:    7    2   0.055106     1.500  12094.3
  12:    8    2   0.056184     1.529  12330.9
  13:    9    2   0.066409     1.807  14575.1
  14:   10    2   0.066913     1.821  14685.6
  15:   11    2   0.069258     1.885  15200.4
  16:   12    2   0.078391     2.133  17204.8
  17:   13    2   0.078445     2.135  17216.6
  18:   14    2   0.078791     2.144  17292.6
  19:   15    2   0.089479     2.435  19638.4
  20:   16    2   0.123185     3.352  27036.1
  21:   17    2   0.136081     3.703  29866.2
  22:   18    2   0.138411     3.766  30377.8
  23:   19    2   0.144127     3.922  31632.1
  24:    4    4   0.403495    10.980  88556.9
  25:    5    4   0.403495    10.980  88556.9
  26:    6    4   0.403495    10.980  88556.9
  27:    7    4   0.412160    11.215  90458.7
  28:    8    4   0.436632    11.881  95829.6
  29:    9    4   0.439135    11.949  96379.1
  30:   20    2   0.447774    12.185  98275.1
  31:   21    2   0.447832    12.186  98287.8
  32:   22    2   0.448189    12.196  98366.2
  33:   23    2   0.454557    12.369  99763.7
  34:   24    2   0.457188    12.441 100341.1
  35:   25    2   0.461709    12.564 101333.4
  36:   26    2   0.462814    12.594 101575.8
  37:   27    2   0.463703    12.618 101771.1
  38:   28    2   0.466532    12.695 102392.0
  39:   29    2   0.474720    12.918 104188.9
  40:   30    2   0.474797    12.920 104205.9
  41:   31    2   0.474827    12.921 104212.4
  42:   32    2   0.474892    12.922 104226.7
  43:   33    2   0.483055    13.145 106018.3
  44:   34    2   0.485538    13.212 106563.2
  45:   35    2   0.540089    14.697 118535.7
  46:   36    2   0.944826    25.710 207365.3
  47:   37    2   0.944856    25.711 207371.9
  48:   38    2   0.944963    25.714 207395.4
  49:   39    2   0.945125    25.718 207430.9


--------------
DENSITY MATRIX
--------------

                  0          1          2          3          4    
      0       0.600000   0.000000   0.000000   0.000000  -0.000000
      1       0.000000   0.600000  -0.000000   0.000000  -0.000000
      2       0.000000  -0.000000   0.600000  -0.000000   0.000000
      3       0.000000   0.000000  -0.000000   0.600000  -0.000000
      4      -0.000000  -0.000000   0.000000  -0.000000   0.600000
Trace of the electron density:  3.000000
Extracting Spin-Density from 2-RDM (MULT=4) ... done
Extracting Spin-Density from 2-RDM (MULT=2) ... done

-------------------
SPIN-DENSITY MATRIX
-------------------

                  0          1          2          3          4    
      0       0.400000  -0.000000   0.000000   0.000000  -0.000000
      1      -0.000000   0.400000   0.000000   0.000000  -0.000000
      2       0.000000   0.000000   0.400000   0.000000   0.000000
      3       0.000000   0.000000   0.000000   0.400000   0.000000
      4      -0.000000  -0.000000   0.000000   0.000000   0.400000
Trace of the spin density:  2.000000

-----------------
ENERGY COMPONENTS
-----------------

One electron energy          :  -5508.983839450 Eh     -149907.0714 eV
Two electron energy          :   1465.769829485 Eh       39885.6248 eV
Nuclear repulsion energy     :      0.000000000 Eh           0.0000 eV
                               ----------------
                                -4043.214009966

Kinetic energy               :   4450.143716965 Eh      121094.5669 eV
Potential energy             :  -8493.357726930 Eh     -231116.0135 eV
Virial ratio                 :     -1.908558075 
                               ----------------
                                -4043.214009966

Core energy                  :  -4037.631313240 Eh  -109869.5337 eV


----------------------------
LOEWDIN ORBITAL-COMPOSITIONS
----------------------------

                      0         1         2         3         4         5   
                 -740.85407 -109.19813 -97.67557 -97.67620 -97.67545 -21.32321
                   2.00000   2.00000   2.00000   2.00000   2.00000   2.00000
                  --------  --------  --------  --------  --------  --------
 0 Mo s             100.0     100.0       0.0       0.0       0.0     100.0
 0 Mo pz              0.0       0.0       7.6      80.4      12.0       0.0
 0 Mo px              0.0       0.0      19.5      19.2      61.3       0.0
 0 Mo py              0.0       0.0      72.8       0.4      26.8       0.0

                      6         7         8         9        10        11   
                 -17.42675 -17.42878 -17.42461 -11.07367 -11.07248 -11.07462
                   2.00000   2.00000   2.00000   2.00000   2.00000   2.00000
                  --------  --------  --------  --------  --------  --------
 0 Mo pz              4.3      81.7      14.0       0.0       0.0       0.0
 0 Mo px             52.1      15.9      32.0       0.0       0.0       0.0
 0 Mo py             43.6       2.3      54.1       0.0       0.0       0.0
 0 Mo dz2             0.0       0.0       0.0      32.2       2.0       0.1
 0 Mo dxz             0.0       0.0       0.0       1.7      59.0      35.0
 0 Mo dyz             0.0       0.0       0.0      33.3       0.0       8.2
 0 Mo dx2y2           0.0       0.0       0.0      32.6      14.4       5.7
 0 Mo dxy             0.0       0.0       0.0       0.2      24.6      51.0

                     12        13        14        15        16        17   
                 -11.07364 -11.07717  -4.52765  -3.30680  -3.31034  -3.30800
                   2.00000   2.00000   2.00000   2.00000   2.00000   2.00000
                  --------  --------  --------  --------  --------  --------
 0 Mo s               0.0       0.0     100.0       0.0       0.0       0.0
 0 Mo pz              0.0       0.0       0.0      21.3      27.3      51.4
 0 Mo px              0.0       0.0       0.0      78.7       6.5      14.8
 0 Mo py              0.0       0.0       0.0       0.0      66.2      33.8
 0 Mo dz2             4.4      61.3       0.0       0.0       0.0       0.0
 0 Mo dxz             0.4       3.8       0.0       0.0       0.0       0.0
 0 Mo dyz            26.2      32.3       0.0       0.0       0.0       0.0
 0 Mo dx2y2          44.8       2.5       0.0       0.0       0.0       0.0
 0 Mo dxy            24.2       0.0       0.0       0.0       0.0       0.0

                     18        19        20        21        22        23   
                  -0.91083  -1.26658  -1.27002  -1.26747  -1.27371  -1.15095
                   0.60000   0.60000   0.60000   0.60000   0.60000   0.00000
                  --------  --------  --------  --------  --------  --------
 0 Mo s             100.0       0.0       0.0       0.0       0.0       0.0
 0 Mo dz2             0.0       4.0      29.1      11.0      31.5      24.4
 0 Mo dxz             0.0       0.4      41.7      23.5      28.2       6.3
 0 Mo dyz             0.0      11.7      25.4       0.1       7.4      55.4
 0 Mo dx2y2           0.0      82.7       1.8       0.0       1.5      13.9
 0 Mo dxy             0.0       1.1       2.0      65.4      31.4       0.0

                     24        25        26        27        28        29   
                  -0.59809  -0.60201  -0.60170  -0.43573  -0.40490  -0.40448
                   0.00000   0.00000   0.00000   0.00000   0.00000   0.00000
                  --------  --------  --------  --------  --------  --------
 0 Mo s               0.0       0.0       0.0     100.0       0.0       0.0
 0 Mo pz             11.5       0.1      88.4       0.0      70.8       0.6
 0 Mo px             88.1       0.4      11.6       0.0      27.9      10.2
 0 Mo py              0.4      99.6       0.0       0.0       1.2      89.2

                     30        31        32        33        34        35   
                  -0.40274  -0.42317  -0.42499  -0.42484  -0.42785  -0.42448
                   0.00000   0.00000   0.00000   0.00000   0.00000   0.00000
                  --------  --------  --------  --------  --------  --------
 0 Mo pz             28.6       0.0       0.0       0.0       0.0       0.0
 0 Mo px             61.8       0.0       0.0       0.0       0.0       0.0
 0 Mo py              9.5       0.0       0.0       0.0       0.0       0.0
 0 Mo dz2             0.0       0.2       1.0      14.7      82.1       2.1
 0 Mo dxz             0.0       0.2      91.8       0.9       1.0       6.0
 0 Mo dyz             0.0       3.6       6.3       1.0       0.8      88.4
 0 Mo dx2y2           0.0      96.0       0.8       0.0       0.1       3.0
 0 Mo dxy             0.0       0.1       0.1      83.3      16.0       0.5

                     36        37        38        39        40        41   
                  -0.07575   0.08442   0.08286   0.08503   0.65965   0.66087
                   0.00000   0.00000   0.00000   0.00000   0.00000   0.00000
                  --------  --------  --------  --------  --------  --------
 0 Mo s             100.0       0.0       0.0       0.0       0.0       0.0
 0 Mo pz              0.0      11.2      88.6       0.2       0.0       0.0
 0 Mo px              0.0      29.3       5.5      65.2       0.0       0.0
 0 Mo py              0.0      59.5       5.9      34.6       0.0       0.0
 0 Mo dz2             0.0       0.0       0.0       0.0      83.7       0.1
 0 Mo dxz             0.0       0.0       0.0       0.0       0.4      94.9
 0 Mo dyz             0.0       0.0       0.0       0.0       2.4       0.6
 0 Mo dx2y2           0.0       0.0       0.0       0.0      13.3       0.8
 0 Mo dxy             0.0       0.0       0.0       0.0       0.2       3.6

                     42        43        44        45        46        47   
                   0.65233   0.65942   0.65869   0.69288   0.69366   0.69406
                   0.00000   0.00000   0.00000   0.00000   0.00000   0.00000
                  --------  --------  --------  --------  --------  --------
 0 Mo dz2             8.8       6.2       1.2       0.0       0.0       0.0
 0 Mo dxz             2.5       1.1       1.1       0.0       0.0       0.0
 0 Mo dyz            60.3       0.5      36.1       0.0       0.0       0.0
 0 Mo dx2y2          17.6      35.0      33.2       0.0       0.0       0.0
 0 Mo dxy            10.8      57.1      28.3       0.0       0.0       0.0
 0 Mo f0              0.0       0.0       0.0       3.5      10.6       0.8
[...]
MO   5:
 MO   6:      0.247503419 (     0.178707676,      0.163402204,      0.051197935)
 MO   7:      0.247503419 (     0.098733782,     -0.037867434,     -0.223775870)
 MO   8:      0.247503419 (     0.139904071,     -0.181999229,      0.092526071)
 MO  15:      0.048781807 (     0.043278215,      0.000880200,     -0.022491911)
 MO  16:      0.048781807 (    -0.012442530,     -0.039684714,     -0.025494542)
 MO  17:      0.048781807 (    -0.018757512,      0.028355131,     -0.034982953)
MO   6:
 MO   9:      0.142259392 (     0.032774829,     -0.123784823,     -0.061974694)
 MO  10:      0.143030861 (     0.030070858,     -0.100279586,      0.097455504)
 MO  11:      0.140383176 (    -0.074635840,     -0.110190492,     -0.044665230)
 MO  12:      0.167731667 (     0.160866502,      0.018083344,      0.043918941)
 MO  13:      0.149651672 (    -0.075074429,     -0.016349520,      0.128421752)
 MO  14:      0.074416570 (    -0.053731833,     -0.049129954,     -0.015393625)
 MO  18:      0.015941280 (     0.011510262,      0.010524462,      0.003297573)
 MO  19:      0.025638725 (     0.022902988,     -0.010896464,      0.003750257)
 MO  20:      0.010723654 (     0.010403088,     -0.002598988,      0.000133296)
 MO  21:      0.023528372 (     0.014330120,      0.013347390,      0.013041438)
 MO  22:      0.029712368 (     0.011648459,      0.018569275,     -0.020057922)
MO   7:
 MO   9:      0.164419097 (     0.037988019,      0.123626688,     -0.101523357)
 MO  10:      0.118527681 (    -0.079284253,     -0.031164919,      0.082410959)
 MO  11:      0.171067622 (     0.136130298,     -0.092924547,     -0.045800674)
 MO  12:      0.067180633 (     0.054525917,     -0.033283494,      0.020793528)
 MO  13:      0.189928181 (    -0.076233083,     -0.086843890,     -0.150729458)
 MO  14:      0.074416570 (    -0.029686174,      0.011385558,      0.067282435)
 MO  18:      0.015941280 (     0.006359277,     -0.002438978,     -0.014413029)
 MO  19:      0.014222600 (     0.013054401,     -0.004222775,      0.003746084)
 MO  20:      0.030093812 (    -0.011053553,      0.010689262,      0.025868827)
 MO  21:      0.021032685 (    -0.018349766,      0.009206570,     -0.004571541)
 MO  22:      0.021503704 (     0.013649016,      0.011526364,      0.011968985)
MO   8:
 MO   9:      0.138881769 (     0.009836884,      0.086072068,      0.108549438)
 MO  10:      0.179033185 (     0.166431048,     -0.009839775,      0.065243899)
 MO  11:      0.132619579 (     0.081777575,     -0.024068940,     -0.101592652)
 MO  12:      0.184153116 (     0.010982621,      0.159230026,     -0.091856143)
 MO  13:      0.089951003 (    -0.047117198,      0.076416133,      0.005632689)
 MO  14:      0.074416570 (    -0.042064797,      0.054721500,     -0.027819708)
 MO  18:      0.015941280 (     0.009010987,     -0.011722265,      0.005959449)
 MO  19:      0.028278042 (     0.013772311,      0.022198956,     -0.010824854)
 MO  20:      0.025271326 (     0.017237715,     -0.011505926,      0.014460801)
 MO  21:      0.025754924 (    -0.014995087,      0.017663857,      0.011245072)
 MO  22:      0.017721178 (    -0.014340268,     -0.003288434,     -0.009878415)
MO   9:
 MO  15:      0.038106949 (     0.017960793,      0.018895258,     -0.027794220)
 MO  16:      0.066991569 (    -0.002069886,      0.066150781,      0.010375938)
 MO  17:      0.049652159 (     0.001798646,     -0.008225120,     -0.048933109)
MO  10:
 MO  15:      0.057348093 (     0.002995299,     -0.029463421,      0.049109457)
 MO  16:      0.025705486 (    -0.007517991,      0.023165695,     -0.008222067)
 MO  17:      0.066751562 (    -0.065882243,      0.000199905,     -0.010735973)
MO  11:
 MO  15:      0.067497944 (     0.031556259,     -0.049878557,     -0.032746062)
 MO  16:      0.055412786 (     0.053471150,      0.013909763,     -0.004234548)
 MO  17:      0.027906943 (    -0.005765321,     -0.003947200,      0.027018108)
MO  12:
 MO  15:      0.049697723 (     0.047962467,      0.012368605,      0.004059928)
 MO  16:      0.040997929 (    -0.036805798,      0.003448757,     -0.017727647)
 MO  17:      0.065227701 (     0.001891066,     -0.056728505,      0.032139595)
MO  13:
 MO  15:      0.047351155 (    -0.040957776,     -0.018361718,     -0.015081107)
 MO  16:      0.064100405 (     0.004379207,     -0.003441064,     -0.063857996)
 MO  17:      0.045324970 (     0.005411233,     -0.037075517,     -0.025504461)
MO  14:
 MO  15:      0.664289901 (    -0.589344323,     -0.011986190,      0.306285280)
 MO  16:      0.664289901 (     0.169437080,      0.540409550,      0.347173828)
 MO  17:      0.664289901 (     0.255431826,     -0.386128116,      0.476382968)
MO  15:
 MO  18:      0.252296407 (    -0.223832178,     -0.004552339,      0.116326735)
 MO  19:      0.529717375 (     0.526971351,     -0.044707444,      0.030048911)
 MO  20:      0.482796121 (     0.053423203,      0.060734667,      0.475972012)
 MO  21:      0.465454086 (    -0.210622309,      0.390068571,      0.141888191)
 MO  22:      0.438823885 (     0.241638215,      0.352646296,     -0.099085644)
MO  16:
 MO  18:      0.252296407 (     0.064351974,      0.205246818,      0.131856150)
 MO  19:      0.311830198 (    -0.174147691,      0.246392857,     -0.078747788)
 MO  20:      0.380207860 (    -0.187273295,      0.086867708,      0.319281586)
 MO  21:      0.522820375 (    -0.482599593,     -0.037703755,     -0.197527730)
 MO  22:      0.457564971 (    -0.128373908,     -0.204741378,      0.388544477)
MO  17:
 MO  18:      0.252296406 (     0.097012662,     -0.146650938,      0.180929606)
 MO  19:      0.497918840 (    -0.159994292,     -0.417901426,      0.218365281)
 MO  20:      0.498108050 (    -0.401282036,      0.290397168,     -0.052477057)
 MO  21:      0.368474002 (     0.109379317,     -0.251488579,     -0.246095002)
 MO  22:      0.473106369 (     0.352298740,      0.133959882,      0.285954514)
MO  18:
MO  19:
MO  20:
MO  21:
MO  22:
CleanUpVectors: The p-vectors have cracked symmetry

-------------------------------------------------------------
 Forming the transition density       ... done in 0.085732 sec
-------------------------------------------------------------



==========================================
CASSCF UV, CD spectra and dipole moments
==========================================
-------------------
ABSORPTION SPECTRUM
-------------------

Center of mass           = (  0.0000,  0.0000,  0.0000)
Nuclear contribution to the dipole moment =     0.000000,    0.000000,    0.000000 au

Calculating the Dipole integrals                  ... done
Transforming integrals                            ... done
Calculating the Linear Momentum integrals         ... done
Transforming integrals                            ... done
Calculating the Angular Momentum integrals        ... done
Transforming integrals                            ... done

------------------------------------------------------------------------------------------
                                ABSORPTION SPECTRUM
------------------------------------------------------------------------------------------
  States           Energy   Wavelength   fosc          T2        TX         TY        TZ  
                   (cm-1)     (nm)                   (D**2)      (D)        (D)       (D) 
------------------------------------------------------------------------------------------
  0( 0)-> 1( 0) 4    1620.4   6171.2   0.000000000   0.00000  -0.00000   0.00000   0.00000
  0( 0)-> 2( 0) 4    2170.0   4608.3   0.000000000   0.00000  -0.00000  -0.00000  -0.00000
  0( 0)-> 3( 0) 4    7540.8   1326.1   0.000000000   0.00000  -0.00000   0.00000   0.00000
  0( 0)-> 4( 0) 4   88556.9    112.9   0.000000000   0.00000   0.00000   0.00000  -0.00000
  0( 0)-> 5( 0) 4   88556.9    112.9   0.000000000   0.00000  -0.00000  -0.00000  -0.00000
  0( 0)-> 6( 0) 4   88556.9    112.9   0.000000000   0.00000   0.00000   0.00000  -0.00000
  0( 0)-> 7( 0) 4   90458.7    110.5   0.000000000   0.00000   0.00000  -0.00000   0.00000
  0( 0)-> 8( 0) 4   95829.6    104.4   0.000000000   0.00000   0.00000   0.00000   0.00000
  0( 0)-> 9( 0) 4   96379.1    103.8   0.000000000   0.00000  -0.00000  -0.00000   0.00000
------------------------------------------------------------------------------------------



------------------------------------------------------------------------------
                             CD SPECTRUM
------------------------------------------------------------------------------
      States        Energy   Wavelength   R*T        RX        RY        RZ   
                    (cm-1)      (nm)   (1e40*sgs)   (au)      (au)      (au)  
------------------------------------------------------------------------------
  0( 0)-> 1( 0) 4    1620.4   6171.2     0.00000   0.10141   0.79143   0.38580
  0( 0)-> 2( 0) 4    2170.0   4608.3    -0.00000  -0.20289  -0.33794   0.74658
  0( 0)-> 3( 0) 4    7540.8   1326.1    -0.00000   0.04052  -0.00865   0.00710
  0( 0)-> 4( 0) 4   88556.9    112.9     0.00000  -0.00000   0.00000   0.00000
  0( 0)-> 5( 0) 4   88556.9    112.9    -0.00000   0.00000   0.00000  -0.00000
  0( 0)-> 6( 0) 4   88556.9    112.9     0.00000   0.00000  -0.00000  -0.00000
  0( 0)-> 7( 0) 4   90458.7    110.5    -0.00000  -0.00000   0.00000  -0.00000
  0( 0)-> 8( 0) 4   95829.6    104.4    -0.00000  -0.00000  -0.00000   0.00000
  0( 0)-> 9( 0) 4   96379.1    103.8     0.00000  -0.00000   0.00000   0.00000
------------------------------------------------------------------------------

------------------------------------------------------------------------------
                                 DIPOLE MOMENTS
------------------------------------------------------------------------------
  Root  Block           TX        TY        TZ           |T|
                      (Debye)   (Debye)   (Debye)      (Debye)
------------------------------------------------------------------------------
    0    0            0.00000   0.00000   0.00000      0.00000

--------------
CASSCF TIMINGS
--------------

Total time                       ...        2.2 sec
Sum of individual times          ...        0.4 sec ( 20.7%)

Calculation of AO operators
   F(Core) operator              ...        0.1 sec (  2.8%)
   G(Act) operator               ...        0.1 sec (  2.9%)
Calculation of MO transformed quantities
   J(MO) operators               ...        0.2 sec (  7.2%)
   AO->MO one electron integrals ...        0.0 sec (  0.0%)
Configuration interaction steps
   CI-setup phase                ...        0.0 sec (  0.1%)
   CI-solution phase             ...        0.0 sec (  2.0%)
   Generation of densities       ...        0.0 sec (  0.4%)
Orbital improvement steps
   Orbital gradient              ...        0.0 sec (  0.9%)
CPCM steps
   Total CPCM time               ...        0.0 sec (  0.5%)
Properties                       ...        0.1 sec (  4.0%)
   SOC integral calculation      ...        0.0 sec (  0.0%)
   SSC RMEs (incl. integrals)    ...        0.0 sec (  0.0%)
   SOC RMEs                      ...        0.0 sec (  0.0%)

Maximum memory used throughout the entire CASSCF-calculation: 118.8 MB


           ************************************************************
           *        Program running with 12 parallel MPI-processes    *
           *              working on a common directory               *
           ************************************************************

------------------------------------------------------------------------------
                         ORCA PROPERTY INTEGRAL CALCULATIONS
------------------------------------------------------------------------------

GBWName                                   ... mol.gbw
Number of atoms                           ...      1
Number of basis functions                 ...     77
Max core memory                           ...   1024 MB

Dipole integrals                          ... YES
Quadrupole integrals                      ...  NO
Linear Momentum integrals                 ...  NO
Angular Momentum integrals                ...  NO
Higher Moments length integrals           ...  NO
Higher Moments velocity integrals         ...  NO
Kinetic energy integrals                  ...  NO
GIAO Right Hand Sides                     ...  NO
SOC integrals                             ...  NO
EPR diamagnetic integrals (GIAO)          ...  NO
EPR gauge integrals                       ...  NO
Field gradient integrals                  ...  NO (   0 nuclei)
Spin-dipole/Fermi contact integrals       ...  NO (   0 nuclei)
Nucleus-orbit integrals                   ...  NO (   0 nuclei)
Geometric perturbations                   ...  NO (   1 nuclei)
Electric origin: (  0.0000,  0.0000,  0.0000) 
Magnetic origin: (  0.0000,  0.0000,  0.0000) 

Calculating integrals                     ... Electric Dipole (Length)     done (  0.0 sec)

Property integrals calculated in   0.0 sec

Maximum memory used throughout the entire PROPINT-calculation: 6.1 MB

-------------------------   --------------------
FINAL SINGLE POINT ENERGY     -4043.214009965538
-------------------------   --------------------


                            ***************************************
                            *     ORCA property calculations      *
                            ***************************************

                                    ---------------------
                                    Active property flags
                                    ---------------------
   (+) Dipole Moment


------------------------------------------------------------------------------
                       ORCA ELECTRIC PROPERTIES CALCULATION
------------------------------------------------------------------------------

Dipole Moment Calculation                       ... ON
Quadrupole Moment Calculation                   ... OFF
Polarizability Calculation                      ... OFF
Atomic Dipole Moment Calculation                ... OFF
Atomic Quadrupole Moment Calculation            ... OFF
Atomic Polarizability Calculation               ... OFF
Relativistic picture-change correction          ... OFF
GBWName                                         ... mol.gbw
Electron density                                ... mol.scfp

The origin for moment calculation is the CENTER OF MASS  = ( 0.000000,  0.000000  0.000000)

-------------
DIPOLE MOMENT
-------------
                                X             Y             Z
Electronic contribution:      0.00000       0.00000       0.00000
Nuclear contribution   :      0.00000       0.00000       0.00000
                        -----------------------------------------
Total Dipole Moment    :      0.00000       0.00000       0.00000
                        -----------------------------------------
Magnitude (a.u.)       :      0.00000
Magnitude (Debye)      :      0.00000



--------------------
Rotational spectrum 
--------------------
 
Rotational constants in cm-1:     0.000000     0.000000     0.000000 
Rotational constants in MHz :     0.000000     0.000000     0.000000 

 Dipole components along the rotational axes: 
x,y,z [a.u.] :     0.000000     0.000000     0.000000 
x,y,z [Debye]:     0.000000     0.000000     0.000000 

 

--------------------------------
SUGGESTED CITATIONS FOR THIS RUN
--------------------------------

Below you find a list of papers that are relevant to this ORCA run
We neither can nor want to force you to cite these paper, but we appreciate if you do
You receive ORCA, which is the product of a lot of hard work by many enthusiastic individuals, for free
The only thing we kindly ask in return is that you cite our papers,
We deeply appreciate it, if you show your appreciation for ORCA by not just citing the generic ORCA reference.

Please note that relegating all ORCA citations to the supporting information does *not* help us.
SI sections are not indexed - citations you put there will not count into any citation statistics
But we need these citations in order to attract the funding resources that allow us to do what we are doing

Therefore, if you are a happy ORCA user, please consider citing a few of the papers listed below in the main body of your paper

In addition to the list printed below, the program has created the file mol.bibtex that contains the list in bibtex format
You can import this file easily into all common literature databanks and citation aid programs


List of essential papers. We consider these as the minimum necessary citations

  1. Neese,F.
     Software update: the ORCA program system, version 5.0
     WIRES Comput. Molec. Sci., 2022 12(1)e1606
     doi.org/10.1002/wcms.1606

List of papers to cite with high priority. The work reported in these papers was absolutely
necessary for this run to complete.
Our perspective: the developers of density functionals and basis sets usually get cited in chemistry papers
Good! But without the algorithms to do something with them, the functionals or basis sets would not do anything.
Hence, in our opinion, the algorithm design and method developments papers are equally worthy of getting cited

  1. Kollmar,C.; Sivalingam,K.; Helmich-Paris,B.; Angeli,C.; Neese,F.
     A perturbation-based super-CI approach for the orbital optimization of a CASSCF wave function
     J. Comput. Chem., 2019 40 1463-1470
     doi.org/10.1002/jcc.25801
  2. Neese,F.
     The SHARK Integral Generation and Digestion System
     J. Comp. Chem., 2022  1-16
     doi.org/10.1002/jcc.26942

List of suggested additional citations. These are papers that are important in the 'surrounding' of 
of this run, or papers that preceded the highly important papers. If you like your results we are grateful for a citation.

  1. Neese,F.
     The ORCA program system
     WIRES Comput. Molec. Sci., 2012 2(1)73-78
     doi.org/10.1002/wcms.81
  2. Neese,F.
     Software update: the ORCA program system, version 4.0
     WIRES Comput. Molec. Sci., 2018 8(1)1-6
     doi.org/10.1002/wcms.1327
  3. Neese,F.; Wennmohs,F.; Becker,U.; Riplinger,C.
     The ORCA quantum chemistry program package
     J. Chem. Phys., 2020 152 Art. No. L224108
     doi.org/10.1063/5.0004608

Timings for individual modules:

Sum of individual times         ...        5.766 sec (=   0.096 min)
GTO integral calculation        ...        1.734 sec (=   0.029 min)  30.1 %
Relativistic integrals          ...        0.360 sec (=   0.006 min)   6.2 %
SCF iterations                  ...        0.631 sec (=   0.011 min)  10.9 %
CASSCF iterations               ...        2.497 sec (=   0.042 min)  43.3 %
Property integrals              ...        0.544 sec (=   0.009 min)   9.4 %
                             ****ORCA TERMINATED NORMALLY****
TOTAL RUN TIME: 0 days 0 hours 0 minutes 6 seconds 157 msec
'mol.bibtex' -> '/csnfs/users/llang/calculations/ICE_SOC_SSC/Mo_HIPT_NH3/scalarrel/CASSCF_3_5_startorbs/mergefrag_startorbs/Mo/pmodel_casci/mol.bibtex'
'mol.densities' -> '/csnfs/users/llang/calculations/ICE_SOC_SSC/Mo_HIPT_NH3/scalarrel/CASSCF_3_5_startorbs/mergefrag_startorbs/Mo/pmodel_casci/mol.densities'
'mol.err' -> '/csnfs/users/llang/calculations/ICE_SOC_SSC/Mo_HIPT_NH3/scalarrel/CASSCF_3_5_startorbs/mergefrag_startorbs/Mo/pmodel_casci/mol.err'
'mol.gbw' -> '/csnfs/users/llang/calculations/ICE_SOC_SSC/Mo_HIPT_NH3/scalarrel/CASSCF_3_5_startorbs/mergefrag_startorbs/Mo/pmodel_casci/mol.gbw'
'mol.job' -> '/csnfs/users/llang/calculations/ICE_SOC_SSC/Mo_HIPT_NH3/scalarrel/CASSCF_3_5_startorbs/mergefrag_startorbs/Mo/pmodel_casci/mol.job'
'mol_property.txt' -> '/csnfs/users/llang/calculations/ICE_SOC_SSC/Mo_HIPT_NH3/scalarrel/CASSCF_3_5_startorbs/mergefrag_startorbs/Mo/pmodel_casci/mol_property.txt'
cp: cannot stat 'mol.asa.inp': No such file or directory
cp: missing destination file operand after '/csnfs/users/llang/calculations/ICE_SOC_SSC/Mo_HIPT_NH3/scalarrel/CASSCF_3_5_startorbs/mergefrag_startorbs/Mo/pmodel_casci/'
Try 'cp --help' for more information.
