! Job execution by suborca V 9.37 !
Job started from head1.mpi-muelheim.mpg.de, running /hsnfs/software/orca/orca_current_directory/orca_current_20230614/orca on xe30th76.mpi-muelheim.mpg.de in /usr/scratch/llang/mol__281090 (/bin/tcsh)
Job execution start: Tue Jun 20 09:35:12 CEST 2023
Shared library path: /hsnfs/software/openmpi-4.1.0/lib:/hsnfs/software/orca/orca_current_directory/orca_current_20230614:/hsnfs/software/themis/llvm-14.0.1/lib:/hsnfs/software/orca/orca_stable:/usr/users/openmpi-2.0.4/lib:/opt/intel/lib/intel64:/opt/intel/mkl/lib/intel64
SLURM Job ID is: 281090
SLURM_JOB_NODELIST: xe30th76
Maxcore enforced by SLURM: 14400 MB
Expanded nodelist (1 nodes):
xe30th76

                                 *****************
                                 * O   R   C   A *
                                 *****************

                                            #,                                       
                                            ###                                      
                                            ####                                     
                                            #####                                    
                                            ######                                   
                                           ########,                                 
                                     ,,################,,,,,                         
                               ,,#################################,,                 
                          ,,##########################################,,             
                       ,#########################################, ''#####,          
                    ,#############################################,,   '####,        
                  ,##################################################,,,,####,       
                ,###########''''           ''''###############################       
              ,#####''   ,,,,##########,,,,          '''####'''          '####       
            ,##' ,,,,###########################,,,                        '##       
           ' ,,###''''                  '''############,,,                           
         ,,##''                                '''############,,,,        ,,,,,,###''
      ,#''                                            '''#######################'''  
     '                                                          ''''####''''         
             ,#######,   #######,   ,#######,      ##                                
            ,#'     '#,  ##    ##  ,#'     '#,    #''#        ,####,   ,####,        
            ##       ##  ##   ,#'  ##            #'  '#       #'       #'  '#        
            ##       ##  #######   ##           ,######,      #####,   #    #        
            '#,     ,#'  ##    ##  '#,     ,#' ,#      #,     #,   #   #,  ,#        
             '#######'   ##     ##  '#######'  #'      '#     '####' # '####'.alpha  



                  #######################################################
                  #                        -***-                        #
                  #          Department of theory and spectroscopy      #
                  #    Directorship and core code : Frank Neese         #
                  #        Max Planck Institute fuer Kohlenforschung    #
                  #                Kaiser Wilhelm Platz 1               #
                  #                 D-45470 Muelheim/Ruhr               #
                  #                      Germany                        #
                  #                                                     #
                  #                  All rights reserved                #
                  #                        -***-                        #
                  #######################################################


                         Program Version 5.0  -  CURRENT   -
                                (GIT: $feed972cd$)
                ($2023-06-13 17:09:58 +0200 $)

                  !                     WARNING:                         !
                  !         This is a DEVELOPMENT version                !

                         (BUILD: $Mi 14. Jun 00:07:53 CEST 2023$)


 With contributions from (in alphabetic order):
   Daniel Aravena         : Magnetic Suceptibility
   Michael Atanasov       : Ab Initio Ligand Field Theory (pilot matlab implementation)
   Alexander A. Auer      : GIAO ZORA, VPT2 properties, NMR spectrum
   Ute Becker             : Parallelization
   Giovanni Bistoni       : ED, misc. LED, open-shell LED, HFLD
   Martin Brehm           : Molecular dynamics
   Dmytro Bykov           : SCF Hessian
   Vijay G. Chilkuri      : MRCI spin determinant printing, contributions to CSF-ICE
   Dipayan Datta          : RHF DLPNO-CCSD density
   Achintya Kumar Dutta   : EOM-CC, STEOM-CC
   Dmitry Ganyushin       : Spin-Orbit,Spin-Spin,Magnetic field MRCI
   Miquel Garcia          : C-PCM and meta-GGA Hessian, CCSD/C-PCM, Gaussian charge scheme
   Yang Guo               : DLPNO-NEVPT2, F12-NEVPT2, CIM, IAO-localization
   Andreas Hansen         : Spin unrestricted coupled pair/coupled cluster methods
   Benjamin Helmich-Paris : MC-RPA, TRAH-(SCF,CASSCF), AVAS, COSX integrals, SCF dyn. polar.
   Lee Huntington         : MR-EOM, pCC
   Robert Izsak           : Overlap fitted RIJCOSX, COSX-SCS-MP3, EOM
   Marcus Kettner         : VPT2
   Christian Kollmar      : KDIIS, OOCD, Brueckner-CCSD(T), CCSD density, CASPT2, CASPT2-K, improved NEVPT2
   Simone Kossmann        : Meta GGA functionals, TD-DFT gradient, OOMP2, MP2 Hessian
   Martin Krupicka        : Initial AUTO-CI
   Lucas Lang             : DCDCAS
   Marvin Lechner         : AUTO-CI (C++ implementation), FIC-MRCC
   Dagmar Lenk            : GEPOL surface, SMD
   Dimitrios Liakos       : Extrapolation schemes; Compound Job, initial MDCI parallelization
   Dimitrios Manganas     : Further ROCIS development; embedding schemes
   Dimitrios Pantazis     : SARC Basis sets
   Anastasios Papadopoulos: AUTO-CI, single reference methods and gradients
   Taras Petrenko         : DFT Hessian,TD-DFT gradient, ASA, ECA, R-Raman, ABS, FL, XAS/XES, NRVS
   Peter Pinski           : DLPNO-MP2, DLPNO-MP2 Gradient
   Christoph Reimann      : Effective Core Potentials
   Marius Retegan         : Local ZFS, SOC
   Christoph Riplinger    : Optimizer, TS searches, QM/MM, DLPNO-CCSD(T), (RO)-DLPNO pert. Triples
   Tobias Risthaus        : Range-separated hybrids, TD-DFT gradient, RPA, STAB
   Michael Roemelt        : Original ROCIS implementation
   Masaaki Saitow         : Open-shell DLPNO-CCSD energy and density
   Barbara Sandhoefer     : DKH picture change effects
   Avijit Sen             : IP-ROCIS
   Kantharuban Sivalingam : CASSCF convergence, NEVPT2, FIC-MRCI
   Bernardo de Souza      : ESD, SOC TD-DFT
   Georgi Stoychev        : AutoAux, RI-MP2 NMR, DLPNO-MP2 response
   Willem Van den Heuvel  : Paramagnetic NMR
   Boris Wezisla          : Elementary symmetry handling
   Frank Wennmohs         : Technical directorship


 We gratefully acknowledge several colleagues who have allowed us to
 interface, adapt or use parts of their codes:
   Stefan Grimme, W. Hujo, H. Kruse, P. Pracht,  : VdW corrections, initial TS optimization,
                  C. Bannwarth, S. Ehlert          DFT functionals, gCP, sTDA/sTD-DF
   Ed Valeev, F. Pavosevic, A. Kumar             : LibInt (2-el integral package), F12 methods
   Garnet Chan, S. Sharma, J. Yang, R. Olivares  : DMRG
   Ulf Ekstrom                                   : XCFun DFT Library
   Mihaly Kallay                                 : mrcc  (arbitrary order and MRCC methods)
   Jiri Pittner, Ondrej Demel                    : Mk-CCSD
   Frank Weinhold                                : gennbo (NPA and NBO analysis)
   Christopher J. Cramer and Donald G. Truhlar   : smd solvation model
   Lars Goerigk                                  : TD-DFT with DH, B97 family of functionals
   V. Asgeirsson, H. Jonsson                     : NEB implementation
   FAccTs GmbH                                   : IRC, NEB, NEB-TS, DLPNO-Multilevel, CI-OPT
                                                   MM, QMMM, 2- and 3-layer-ONIOM, Crystal-QMMM,
                                                   LR-CPCM, SF, NACMEs, symmetry and pop. for TD-DFT,
                                                   nearIR, NL-DFT gradient (VV10), updates on ESD,
                                                   ML-optimized integration grids
   S Lehtola, MJT Oliveira, MAL Marques          : LibXC Library
   Liviu Ungur et al                             : ANISO software


 Your calculation uses the libint2 library for the computation of 2-el integrals
 For citations please refer to: http://libint.valeyev.net

 Your ORCA version has been built with support for libXC version: 5.2.2
 For citations please refer to: https://tddft.org/programs/libxc/

 This ORCA versions uses:
   CBLAS   interface :  Fast vector & matrix operations
   LAPACKE interface :  Fast linear algebra routines
   SCALAPACK package :  Parallel linear algebra routines
   Shared memory     :  Shared parallel matrices


================================================================================

----- Orbital basis set information -----
Your calculation utilizes the basis: DKH-def2-TZVP
   Exponents from def2-TZVP [F. Weigend and R. Ahlrichs, Phys. Chem. Chem. Phys. 7, 3297 (2005)],
   recontracted for DKH2 by D. A. Pantazis.

The basis set includes element-specific modifications.

Your calculation utilizes the basis: SARC-DKH-TZVP 
   Rb-Xe:  J. D. Rolfes, F. Neese and D. A. Pantazis, J. Comput. Chem. 41, 1842 (2020).
   La-Lu:  D. A. Pantazis and F. Neese, J. Chem. Theory Comput. 5, 2229 (2009).
   Hf-Hg:  D. A. Pantazis, X. Y. Chen, C. R. Landis and F. Neese, J. Chem. Theory Comput. 4, 908 (2008).
   Tl-Rn:  D. A. Pantazis and F. Neese, Theor. Chem. Acc. 131, 1292 (2012).
   Ac-Lr:  D. A. Pantazis and F. Neese, J. Chem. Theory Comput. 7, 677 (2011).

================================================================================
                                        WARNINGS
                       Please study these warnings very carefully!
================================================================================


INFO   : the flag for use of the SHARK integral package has been found!

================================================================================
                                       INPUT FILE
================================================================================
NAME = mol.inp
|  1> ! DKH2 DKH-def2-TZVP moread
|  2> 
|  3> %moinp "casscf_3_2_loc_canon_rot.gbw"
|  4> 
|  5> %maxcore 12000
|  6> 
|  7> %pal
|  8>   nprocs 24
|  9> end
| 10> 
| 11> %casscf
| 12>   nel 49
| 13>   norb 33
| 14>   mult 2
| 15>   nroots 2
| 16>   maxiter 1
| 17>   cistep ice
| 18>   ci
| 19>     icetype csfs
| 20>     tgen 1e-4
| 21>     tvar 1e-10
| 22>     csfciwithri 0
| 23>     cibufferlength 10000000
| 24>   end
| 25>   refs
| 26>     {2 2 2 2 2 2 2 2 2 2 2 2 2 2 2 2 2 2 2 2 2 2 2 2 1}
| 27>     {2 2 2 2 2 2 2 2 2 2 2 2 2 2 2 2 2 2 2 2 2 2 2 1 2}
| 28>   end
| 29>   rel
| 30>     dosoc true
| 31>     gtensor true
| 32>   end
| 33> end
| 34> 
| 35> %basis
| 36>   NewGTO Mo "SARC-DKH-TZVP" end
| 37> end
| 38> 
| 39> * xyz 0 2
| 40> Mo 0.000000 0.000000 0.000000
| 41> N 0.000000 -0.000000 2.216533
| 42> N -0.285171 0.004718 -2.279534
| 43> N 2.004311 0.474895 0.316334
| 44> N -0.518640 -1.927117 0.328953
| 45> N -1.436837 1.399372 0.350965
| 46> C 2.970024 0.928749 -0.594152
| 47> C -0.581237 -2.365423 1.743326
| 48> C -0.830393 -1.164002 2.652054
| 49> C -0.582721 1.300275 2.658544
| 50> C -1.760506 1.681705 1.765676
| 51> C -2.297164 2.076237 -0.555955
| 52> C -1.863288 3.517436 -0.893714
| 53> C 2.318314 0.721784 1.731216
| 54> C 1.427336 -0.143035 2.619678
| 55> C -0.748254 -2.988987 -0.591353
| 56> C -2.225153 -3.401980 -0.777574
| 57> C 4.230037 0.039526 -0.716681
| 58> H 3.306753 1.968583 -0.362264
| 59> H -0.884911 1.257688 3.734853
| 60> H 0.214347 2.063803 2.551589
| 61> H -1.987450 2.762476 1.926932
| 62> H -2.688755 1.130205 2.070077
| 63> H 1.560266 0.116824 3.699429
| 64> H 1.702564 -1.208656 2.481159
| 65> H -1.891664 -0.853055 2.556872
| 66> H -0.634431 -1.411885 3.724765
| 67> H -1.396483 -3.106776 1.917960
| 68> H 0.368415 -2.890826 2.024018
| 69> H -1.174880 0.491053 -2.522161
| 70> H 0.462152 0.518729 -2.788176
| 71> H -0.336996 -0.936202 -2.722830
| 72> H 2.201169 1.801001 2.006636
| 73> H 3.382951 0.463776 1.952892
| 74> H 2.515735 0.996716 -1.600586
| 75> H -3.345231 2.108265 -0.176930
| 76> H -2.372707 1.512731 -1.505640
| 77> H -0.168591 -3.895865 -0.302868
| 78> H -0.343914 -2.702078 -1.579029
| 79> H -2.820366 -2.544804 -1.127277
| 80> H -2.321620 -4.218722 -1.511452
| 81> H -2.669196 -3.751571 0.166806
| 82> H -1.822879 4.142017 0.011595
| 83> H -0.857324 3.512842 -1.339810
| 84> H -2.563100 3.993966 -1.599621
| 85> H 4.935889 0.454691 -1.454255
| 86> H 4.763546 -0.040601 0.242620
| 87> H 3.947836 -0.976362 -1.030904
| 88> *
| 89> 
| 90>                          ****END OF INPUT****
================================================================================

                       ****************************
                       * Single Point Calculation *
                       ****************************

---------------------------------
CARTESIAN COORDINATES (ANGSTROEM)
---------------------------------
  Mo     0.000000    0.000000    0.000000
  N      0.000000   -0.000000    2.216533
  N     -0.285171    0.004718   -2.279534
  N      2.004311    0.474895    0.316334
  N     -0.518640   -1.927117    0.328953
  N     -1.436837    1.399372    0.350965
  C      2.970024    0.928749   -0.594152
  C     -0.581237   -2.365423    1.743326
  C     -0.830393   -1.164002    2.652054
  C     -0.582721    1.300275    2.658544
  C     -1.760506    1.681705    1.765676
  C     -2.297164    2.076237   -0.555955
  C     -1.863288    3.517436   -0.893714
  C      2.318314    0.721784    1.731216
  C      1.427336   -0.143035    2.619678
  C     -0.748254   -2.988987   -0.591353
  C     -2.225153   -3.401980   -0.777574
  C      4.230037    0.039526   -0.716681
  H      3.306753    1.968583   -0.362264
  H     -0.884911    1.257688    3.734853
  H      0.214347    2.063803    2.551589
  H     -1.987450    2.762476    1.926932
  H     -2.688755    1.130205    2.070077
  H      1.560266    0.116824    3.699429
  H      1.702564   -1.208656    2.481159
  H     -1.891664   -0.853055    2.556872
  H     -0.634431   -1.411885    3.724765
  H     -1.396483   -3.106776    1.917960
  H      0.368415   -2.890826    2.024018
  H     -1.174880    0.491053   -2.522161
  H      0.462152    0.518729   -2.788176
  H     -0.336996   -0.936202   -2.722830
  H      2.201169    1.801001    2.006636
  H      3.382951    0.463776    1.952892
  H      2.515735    0.996716   -1.600586
  H     -3.345231    2.108265   -0.176930
  H     -2.372707    1.512731   -1.505640
  H     -0.168591   -3.895865   -0.302868
  H     -0.343914   -2.702078   -1.579029
  H     -2.820366   -2.544804   -1.127277
  H     -2.321620   -4.218722   -1.511452
  H     -2.669196   -3.751571    0.166806
  H     -1.822879    4.142017    0.011595
  H     -0.857324    3.512842   -1.339810
  H     -2.563100    3.993966   -1.599621
  H      4.935889    0.454691   -1.454255
  H      4.763546   -0.040601    0.242620
  H      3.947836   -0.976362   -1.030904

----------------------------
CARTESIAN COORDINATES (A.U.)
----------------------------
  NO LB      ZA    FRAG     MASS         X           Y           Z
   0 Mo   42.0000    0    95.940    0.000000    0.000000    0.000000
   1 N     7.0000    0    14.007    0.000000   -0.000000    4.188640
   2 N     7.0000    0    14.007   -0.538895    0.008916   -4.307695
   3 N     7.0000    0    14.007    3.787599    0.897421    0.597785
   4 N     7.0000    0    14.007   -0.980088   -3.641723    0.621631
   5 N     7.0000    0    14.007   -2.715228    2.644430    0.663228
   6 C     6.0000    0    12.011    5.612532    1.755081   -1.122785
   7 C     6.0000    0    12.011   -1.098379   -4.470002    3.294409
   8 C     6.0000    0    12.011   -1.569215   -2.199645    5.011656
   9 C     6.0000    0    12.011   -1.101183    2.457164    5.023920
  10 C     6.0000    0    12.011   -3.326874    3.177962    3.336644
  11 C     6.0000    0    12.011   -4.341011    3.923519   -1.050603
  12 C     6.0000    0    12.011   -3.521104    6.646991   -1.688875
  13 C     6.0000    0    12.011    4.380979    1.363974    3.271524
  14 C     6.0000    0    12.011    2.697274   -0.270297    4.950474
  15 C     6.0000    0    12.011   -1.413995   -5.648367   -1.117495
  16 C     6.0000    0    12.011   -4.204930   -6.428811   -1.469402
  17 C     6.0000    0    12.011    7.993611    0.074693   -1.354331
  18 H     1.0000    0     1.008    6.248858    3.720083   -0.684580
  19 H     1.0000    0     1.008   -1.672239    2.376686    7.057849
  20 H     1.0000    0     1.008    0.405057    3.900022    4.821804
  21 H     1.0000    0     1.008   -3.755736    5.220323    3.641374
  22 H     1.0000    0     1.008   -5.081011    2.135778    3.911879
  23 H     1.0000    0     1.008    2.948475    0.220765    6.990908
  24 H     1.0000    0     1.008    3.217380   -2.284029    4.688711
  25 H     1.0000    0     1.008   -3.574727   -1.612040    4.831788
  26 H     1.0000    0     1.008   -1.198901   -2.668076    7.038786
  27 H     1.0000    0     1.008   -2.638970   -5.870956    3.624419
  28 H     1.0000    0     1.008    0.696203   -5.462869    3.824840
  29 H     1.0000    0     1.008   -2.220201    0.927956   -4.766194
  30 H     1.0000    0     1.008    0.873341    0.980256   -5.268889
  31 H     1.0000    0     1.008   -0.636830   -1.769165   -5.145403
  32 H     1.0000    0     1.008    4.159607    3.403399    3.791992
  33 H     1.0000    0     1.008    6.392851    0.876410    3.690431
  34 H     1.0000    0     1.008    4.754050    1.883520   -3.024669
  35 H     1.0000    0     1.008   -6.321570    3.984043   -0.334349
  36 H     1.0000    0     1.008   -4.483766    2.858647   -2.845247
  37 H     1.0000    0     1.008   -0.318591   -7.362118   -0.572338
  38 H     1.0000    0     1.008   -0.649903   -5.106187   -2.983932
  39 H     1.0000    0     1.008   -5.329719   -4.808983   -2.130245
  40 H     1.0000    0     1.008   -4.387226   -7.972229   -2.856230
  41 H     1.0000    0     1.008   -5.044049   -7.089442    0.315218
  42 H     1.0000    0     1.008   -3.444742    7.827278    0.021911
  43 H     1.0000    0     1.008   -1.620108    6.638309   -2.531874
  44 H     1.0000    0     1.008   -4.843557    7.547502   -3.022846
  45 H     1.0000    0     1.008    9.327478    0.859241   -2.748144
  46 H     1.0000    0     1.008    9.001797   -0.076725    0.458485
  47 H     1.0000    0     1.008    7.460329   -1.845057   -1.948126

--------------------------------
INTERNAL COORDINATES (ANGSTROEM)
--------------------------------
 Mo     0   0   0     0.000000000000     0.00000000     0.00000000
 N      1   0   0     2.216533000000     0.00000000     0.00000000
 N      1   2   0     2.297307122681   172.86834441     0.00000000
 N      1   2   3     2.083951785743    81.26902123   165.72249114
 N      1   2   4     2.022616487992    80.63998886   118.39263367
 N      1   2   5     2.036152987911    80.07454658   119.18022743
 C      4   1   2     1.402700897512   129.59520586   191.68867420
 C      5   1   2     1.482053142493   116.60386069   357.68785316
 C      2   1   5     1.494701218269   106.94039068   339.55910211
 C      2   1   5     1.491862112793   107.23439182   219.20260422
 C      6   1   2     1.478472440721   116.78598216   358.97688549
 C      6   1   2     1.421552904944   130.11612627   186.09137646
 C     12   6   1     1.542525229310   114.47733928   258.48690388
 C      4   1   2     1.470184728615   112.94031639   352.87876467
 C      2   1   5     1.490058038852   105.69738900    99.34039420
 C      5   1   2     1.423816568078   130.30129276   182.86284624
 C     16   5   1     1.544821068956   115.56104660   252.99785966
 C      7   4   1     1.547049986180   115.22430325   238.06689049
 H      7   4   1     1.117324130027   111.95566365   114.39079396
 H     10   2   1     1.118737463460   110.93901652   163.70436124
 H     10   2   1     1.108932719074   106.90443279   281.52632466
 H     11   6   1     1.116052432063   111.57377631   143.60447374
 H     11   6   1     1.121810333703   110.29862468   260.61931817
 H     15   2   1     1.118507624821   110.65396947   164.94706929
 H     15   2   1     1.109272771227   107.22360725   282.88082998
 H      9   2   1     1.109974677808   106.74042539   280.67425371
 H      9   2   1     1.118282601427   110.77940484   163.12596099
 H      8   5   1     1.115673493940   112.13317535   144.85208827
 H      8   5   1     1.121015268574   109.98573932   261.99633991
 H      3   1   5     1.042579348556   109.74332724   103.57811559
 H      3   1   5     1.039911370557   113.39980002   221.39030249
 H      3   1   5     1.041406558766   115.25825843   343.69766187
 H     14   4   1     1.119950204480   112.09563598   269.34809646
 H     14   4   1     1.117658408821   110.82783466   151.31138259
 H      7   4   1     1.106303486827   109.12725219   358.84375355
 H     12   6   1     1.114957478964   111.45026845   135.31235992
 H     12   6   1     1.106863747762   110.26006480    20.32938722
 H     16   5   1     1.114298207698   110.83848742   129.57054606
 H     16   5   1     1.105129626269   108.96841869    14.96738722
 H     17  16   5     1.100600471813   110.31125239    58.81922886
 H     17  16   5     1.102247837620   111.22449752   179.33318790
 H     17  16   5     1.100564235985   111.54367923   299.33705466
 H     13  12   6     1.100599245104   111.12656910   300.12860844
 H     13  12   6     1.100448233834   109.99809842    59.17039115
 H     13  12   6     1.102325890512   111.44146218   179.94739956
 H     18   7   4     1.102090934817   110.98448483   179.50985381
 H     18   7   4     1.100595565051   111.56887406   299.34196257
 H     18   7   4     1.100182678774   110.14853464    59.05089040

---------------------------
INTERNAL COORDINATES (A.U.)
---------------------------
 Mo     0   0   0     0.000000000000     0.00000000     0.00000000
 N      1   0   0     4.188640336799     0.00000000     0.00000000
 N      1   2   0     4.341281307374   172.86834441     0.00000000
 N      1   2   3     3.938098151351    81.26902123   165.72249114
 N      1   2   4     3.822191236259    80.63998886   118.39263367
 N      1   2   5     3.847771513917    80.07454658   119.18022743
 C      4   1   2     2.650720544103   129.59520586   191.68867420
 C      5   1   2     2.800674555230   116.60386069   357.68785316
 C      2   1   5     2.824575954566   106.94039068   339.55910211
 C      2   1   5     2.819210822752   107.23439182   219.20260422
 C      6   1   2     2.793908009512   116.78598216   358.97688549
 C      6   1   2     2.686345675224   130.11612627   186.09137646
 C     12   6   1     2.914950238060   114.47733928   258.48690388
 C      4   1   2     2.778246503356   112.94031639   352.87876467
 C      2   1   5     2.815801617077   105.69738900    99.34039420
 C      5   1   2     2.690623378606   130.30129276   182.86284624
 C     16   5   1     2.919288746239   115.56104660   252.99785966
 C      7   4   1     2.923500789367   115.22430325   238.06689049
 H      7   4   1     2.111436608573   111.95566365   114.39079396
 H     10   2   1     2.114107421698   110.93901652   163.70436124
 H     10   2   1     2.095579139995   106.90443279   281.52632466
 H     11   6   1     2.109033447695   111.57377631   143.60447374
 H     11   6   1     2.119914304901   110.29862468   260.61931817
 H     15   2   1     2.113673089614   110.65396947   164.94706929
 H     15   2   1     2.096221745435   107.22360725   282.88082998
 H      9   2   1     2.097548156644   106.74042539   280.67425371
 H      9   2   1     2.113247857026   110.77940484   163.12596099
 H      8   5   1     2.108317358422   112.13317535   144.85208827
 H      8   5   1     2.118411849550   109.98573932   261.99633991
 H      3   1   5     1.970189441652   109.74332724   103.57811559
 H      3   1   5     1.965147693904   113.39980002   221.39030249
 H      3   1   5     1.967973190137   115.25825843   343.69766187
 H     14   4   1     2.116399170096   112.09563598   269.34809646
 H     14   4   1     2.112068303946   110.82783466   151.31138259
 H      7   4   1     2.090610611106   109.12725219   358.84375355
 H     12   6   1     2.106964286209   111.45026845   135.31235992
 H     12   6   1     2.091669350836   110.26006480    20.32938722
 H     16   5   1     2.105718444068   110.83848742   129.57054606
 H     16   5   1     2.088392336131   108.96841869    14.96738722
 H     17  16   5     2.079833474590   110.31125239    58.81922886
 H     17  16   5     2.082946544808   111.22449752   179.33318790
 H     17  16   5     2.079764998801   111.54367923   299.33705466
 H     13  12   6     2.079831156447   111.12656910   300.12860844
 H     13  12   6     2.079545786503   109.99809842    59.17039115
 H     13  12   6     2.083094043398   111.44146218   179.94739956
 H     18   7   4     2.082650041481   110.98448483   179.50985381
 H     18   7   4     2.079824202156   111.56887406   299.34196257
 H     18   7   4     2.079043960166   110.14853464    59.05089040

---------------------
BASIS SET INFORMATION
---------------------
There are 4 groups of distinct atoms

 Group   1 Type Mo  : 22s15p9d1f contracted to 15s10p5d1f pattern {811111111111111/6111111111/51111/1}
 Group   2 Type N   : 11s6p2d1f contracted to 6s3p2d1f pattern {611111/411/11/1}
 Group   3 Type C   : 11s6p2d1f contracted to 6s3p2d1f pattern {611111/411/11/1}
 Group   4 Type H   : 5s1p contracted to 3s1p pattern {311/1}



           ************************************************************
           *        Program running with 24 parallel MPI-processes    *
           *              working on a common directory               *
           ************************************************************
------------------------------------------------------------------------------
                           ORCA GTO INTEGRAL CALCULATION
------------------------------------------------------------------------------
------------------------------------------------------------------------------
                   ___                                                        
                  /   \      - P O W E R E D   B Y -                         
                 /     \                                                     
                 |  |  |   _    _      __       _____    __    __             
                 |  |  |  | |  | |    /  \     |  _  \  |  |  /  |          
                  \  \/   | |  | |   /    \    | | | |  |  | /  /          
                 / \  \   | |__| |  /  /\  \   | |_| |  |  |/  /          
                |  |  |   |  __  | /  /__\  \  |    /   |      \           
                |  |  |   | |  | | |   __   |  |    \   |  |\   \          
                \     /   | |  | | |  |  |  |  | |\  \  |  | \   \       
                 \___/    |_|  |_| |__|  |__|  |_| \__\ |__|  \__/        
                                                                              
                      - O R C A' S   B I G   F R I E N D -                    
                                      &                                       
                       - I N T E G R A L  F E E D E R -                       
                                                                              
 v1 FN, 2020, v2 2021                                                         
------------------------------------------------------------------------------


----------------------
SHARK INTEGRAL PACKAGE
----------------------

Number of atoms                             ...     48
Number of basis functions                   ...    801
Number of shells                            ...    355
Maximum angular momentum                    ...      3
Integral batch strategy                     ... SHARK/LIBINT Hybrid
RI-J (if used) integral strategy            ... SPLIT-RIJ (Revised 2003 algorithm where possible)
Printlevel                                  ...      1
Contraction scheme used                     ... SEGMENTED contraction
Prescreening option                         ... SCHWARTZ
   Thresh                                   ... 1.000e-10
   Tcut                                     ... 1.000e-11
   Tpresel                                  ... 1.000e-11 
Coulomb Range Separation                    ... NOT USED
Exchange Range Separation                   ... NOT USED
Finite Nucleus Model                        ... NOT USED
Auxiliary Coulomb fitting basis             ... NOT available
Auxiliary J/K fitting basis                 ... NOT available
Auxiliary Correlation fitting basis         ... NOT available
Auxiliary 'external' fitting basis          ... NOT available

Calculating pre-screening integrals         ... done (  0.1 sec) Dimension = 355
Organizing shell pair data                  ... done (  0.4 sec)
Shell pair information
Total number of shell pairs                 ...     63190
Shell pairs after pre-screening             ...     45477
Total number of primitive shell pairs       ...    161528
Primitive shell pairs kept                  ...     80816
          la=0 lb=0:  14954 shell pairs
          la=1 lb=0:  13623 shell pairs
          la=1 lb=1:   3184 shell pairs
          la=2 lb=0:   5879 shell pairs
          la=2 lb=1:   2786 shell pairs
          la=2 lb=2:    643 shell pairs
          la=3 lb=0:   2543 shell pairs
          la=3 lb=1:   1196 shell pairs
          la=3 lb=2:    549 shell pairs
          la=3 lb=3:    120 shell pairs

Calculating one electron integrals          ... done (  0.1 sec)
Calculating Nuclear repulsion               ... done (  0.0 sec) ENN=   2397.213496299911 Eh

-------------------
DFT GRID GENERATION
-------------------

General Integration Accuracy     IntAcc      ... 4.388
Radial Grid Type                 RadialGrid  ... OptM3 with GC (2021)
Angular Grid (max. ang.)         AngularGrid ... 4 (Lebedev-302)
Angular grid pruning method      GridPruning ... 4 (adaptive)
Weight generation scheme         WeightScheme... mBecke (2022)
Basis function cutoff            BFCut       ... 1.0000e-10
Integration weight cutoff        WCut        ... 1.0000e-14
Partially contracted basis set               ... off
Rotationally invariant grid construction     ... off
Angular grids for H and He will be reduced by one unit
Core-polarized basis detected: some atoms will have their core
                               angular grid increased.
Steep s-basis detected: some atoms will have their radial
                        grid points doubled.

Total number of grid points                  ...   215816
Total number of batches                      ...     3399
Average number of points per batch           ...       63
Average number of grid points per atom       ...     4496
Initializing poperty integral containers    ... done (  0.0 sec)

SHARK setup successfully completed in   2.2 seconds

Maximum memory used throughout the entire GTOINT-calculation: 111.0 MB


           ************************************************************
           *        Program running with 24 parallel MPI-processes    *
           *              working on a common directory               *
           ************************************************************
------------------------------------------------------------------------------
                          ORCA RELATIVISTIC HAMILTONIAN
------------------------------------------------------------------------------

Relativistic Method            ... DKH
Order of DKH treatment         ...   2
Treatment of potential         ... V(e,N)
Eps parameter for DKH          ...   0.00000000010000
Nucleus model                  ... Point Nucleus
Speed of light used            ... 137.03598950000000


            ************************************************
            *        DOUGLAS-KROLL-HESS HAMILTONIAN        *
            *   Programmed by FN according to literature   *
            *        procedures. Special thanks to         *
            *       B.A. Hess, M. Reiher and A. Wolf       *
            *     University Erlangen-Nuernberg/Bonn       *
            ************************************************

Uncontracting the basis (first version)        ... done
Number of contracted basis functions           ...  801
Number of uncontracted basis functions         ... 1141
Initializing the DKH file                      ... done
Calculating the relativistic integrals         ... done
Storing DKH matrices                           ... done
Code used for DKH trafo                        ... ORCA
Computing the DKH transformation               ... done
Storing the transformation variables           ... done
Transforming V and pVp to p**2 space           ... done
First transformation of V and pVp              ... done
Second transformation of Veff                  ... done
Adding kinetic energy                          ... done
Back transformation of Veff to r-space         ... done
Recovering DKH matrices                        ... done
Recontracting the H-matrix (first version)     ... done
Computing the DKH correction to the H-matrix   ... done
Reading the original H-matrix                  ... done
Adding DKH correction to the H-matrix          ... done
Storing the new modified H-matrix              ... done

Maximum memory used throughout the entire REL-calculation: 157.8 MB


           ************************************************************
           *        Program running with 24 parallel MPI-processes    *
           *              working on a common directory               *
           ************************************************************

------------------------------------------------------------------------------
                         ORCA PROPERTY INTEGRAL CALCULATIONS
------------------------------------------------------------------------------

GBWName                                   ... mol.gbw
Number of atoms                           ...     48
Number of basis functions                 ...    801
Max core memory                           ...  12000 MB

Dipole integrals                          ... YES
Quadrupole integrals                      ...  NO
Linear Momentum integrals                 ...  NO
Angular Momentum integrals                ...  NO
Higher Moments length integrals           ...  NO
Higher Moments velocity integrals         ...  NO
Kinetic energy integrals                  ...  NO
GIAO Right Hand Sides                     ...  NO
SOC integrals                             ...  NO
EPR diamagnetic integrals (GIAO)          ...  NO
EPR gauge integrals                       ...  NO
Field gradient integrals                  ...  NO (   0 nuclei)
Spin-dipole/Fermi contact integrals       ...  NO (   0 nuclei)
Nucleus-orbit integrals                   ...  NO (   0 nuclei)
Geometric perturbations                   ...  NO (  48 nuclei)
Electric origin: ( -0.0197,  0.0140,  0.7284) 
Magnetic origin: (  0.0000,  0.0000,  0.0000) 

Calculating integrals                     ... Electric Dipole (Length)     done (  0.2 sec)

Property integrals calculated in   0.2 sec

Maximum memory used throughout the entire PROPINT-calculation: 74.2 MB


           ************************************************************
           *        Program running with 24 parallel MPI-processes    *
           *              working on a common directory               *
           ************************************************************
-------------------------------------------------------------------------------
                                 ORCA SCF
-------------------------------------------------------------------------------

------------
SCF SETTINGS
------------
Hamiltonian:
 Ab initio Hamiltonian  Method          .... Hartree-Fock(GTOs)

Relativistic Settings:
 Scalar relativistic method             .... Douglas-Kroll-Hess
 Order of DKH procedure    Order        ....    2
 Mode of DKH-treatment                  .... V=V(e,N)
 Speed of light used       Velit        ....       137.035989
 Cutoff-constant           Eps          ....            1e-10 


General Settings:
 Integral files         IntName         .... mol
 Hartree-Fock type      HFTyp           .... CASSCF
 Total Charge           Charge          ....    0
 Multiplicity           Mult            ....    2
 Number of Electrons    NEL             ....  179
 Basis Dimension        Dim             ....  801
 Nuclear Repulsion      ENuc            ....   2397.2134962999 Eh


Diagonalization of the overlap matrix:
Smallest eigenvalue                        ... 8.057e-05
Time for diagonalization                   ...    0.124 sec
Threshold for overlap eigenvalues          ... 1.000e-08
Number of eigenvalues below threshold      ... 0
Time for construction of square roots      ...    0.072 sec
Total time needed                          ...    0.201 sec

---------------------
INITIAL GUESS: MOREAD
---------------------
Guess MOs are being read from file: casscf_3_2_loc_canon_rot.gbw
Input Geometry matches current geometry (good)
Input basis set matches current basis set (good)
MOs were renormalized
Gram-Schmidt orthogonalization of all MOs with pivot on actives
                      ------------------
                      INITIAL GUESS DONE (   7.9 sec)
                      ------------------


 ... the calculation is a CASSCF calculation -I'm leaving here GOOD LUCK!!!



           ************************************************************
           *        Program running with 24 parallel MPI-processes    *
           *              working on a common directory               *
           ************************************************************
-------------------------------------------------------------------------------
                              ORCA-CASSCF
-------------------------------------------------------------------------------

Setting up the integral package     ... done
Setting up CIPSI                      ... 


Checking CIPSI (ICE) Settings:
     MaxDim    10
     UsingRI   0
     CIPSISweepWindow   -1
     CIETol    1.000e-08
     CIRTol    1.000e-08
     NGMat     512
done (  0.0 sec)

SYSTEM-SPECIFIC SETTINGS:
Number of active electrons          ...   49
Number of active orbitals           ...   33
Total number of electrons           ...  179
Total number of orbitals            ...  801

Determined orbital ranges:
   Internal       0 -   64 (  65 orbitals)
   Active        65 -   97 (  33 orbitals)
   External      98 -  800 ( 703 orbitals)
Number of rotation parameters      ...  71039

CI-STEP:
CI strategy                         ... ICE (approximate)
Number of multiplicity blocks       ...    1
BLOCK  0 WEIGHT=   1.0000
  Multiplicity                      ...    2
  #(Roots)                          ...    2
    ROOT=0 WEIGHT=    0.500000
    ROOT=1 WEIGHT=    0.500000

  PrintLevel                        ...    1
  N(GuessMat)                       ...       512
  MaxDim(CI)                        ...        10
  MaxIter(CI)                       ...        64
  Energy Tolerance CI               ... -1.00e+00
  Residual Tolerance CI             ... -1.00e+00
  Shift(CI)                         ...  1.00e-04
  ICE TGen                          ... 1.000e-04
  ICE TVar                          ... 1.000e-10
  ICE Type                          ... 1

INTEGRAL-TRANSFORMATION-STEP:
  Algorithm                         ... EXACT

ORBITAL-IMPROVEMENT-STEP:
  MaxMacroIter 1 detected                >>> CAS-CI. Check your FINAL ORBITAL options!

SCF-SETTINGS:
  Incremental                       ... on
  RIJCOSX approximation             ... off
  RI-JK approximation               ... off
  AO integral handling              ... DIRECT
  Integral Neglect Thresh           ...  1.00e-10
  Primitive cutoff TCut             ...  1.00e-11
  Energy convergence tolerance      ...  1.00e-07
  Orbital gradient convergence      ...  1.00e-03
  Max. number of iterations         ...         1  


PROPERTIES-SETTINGS:
  Spin orbit coupling               ... true

FINAL ORBITALS:
  Active   Orbitals                 ... unchanged 
  Internal Orbitals                 ... canonical 
  External Orbitals                 ... canonical 

------------------
CAS-SCF ITERATIONS
------------------


MACRO-ITERATION   1: 
   --- Inactive Energy E0 = -4266.79908283 Eh
   --- All densities will be recomputed

                       ****Iteration    0****
  T(sigma)=     0.189 sec T(BLAS)=    0.000 NAv(S)=24856.0 NMax(S)=956
   Maximum residual norm  :     0.000000000000

      *** CONVERGENCE OF RESIDUAL NORM REACHED ***
STATE   0 MULT= 2: E=  -4790.2187501484 Eh W=  0.5000 DE= 0.000 eV      0.0 cm**-1
      0.99939 ( 0.999697061) CSF = 2 2 2 2 2 2 2 2 2 2 2 2 2 2 2 2 2 2 2 2 2 2 2 2 1+0 0 0 0 0 0 0 0 

STATE   1 MULT= 2: E=  -4790.2162847800 Eh W=  0.5000 DE= 0.067 eV    541.1 cm**-1
      0.99939 ( 0.999697061) CSF = 2 2 2 2 2 2 2 2 2 2 2 2 2 2 2 2 2 2 2 2 2 2 2 1+2 0 0 0 0 0 0 0 0 


                  **********************************
                  *  ICECI/CSF MACROITERATION   1  *
                  **********************************

   # of selected CSFs                    ...  70893

                       ****Iteration    0****
  T(sigma)=     7.339 sec T(BLAS)=    0.000 NAv(S)=1751579.9 NMax(S)=183174
   Maximum residual norm  :     1.265967099058

                       ****Iteration    1****
  T(sigma)=     7.328 sec T(BLAS)=    0.000 NAv(S)=1751579.9 NMax(S)=183174
   Maximum residual norm  :     0.014642139859

                       ****Iteration    2****
  T(sigma)=     7.355 sec T(BLAS)=    0.000 NAv(S)=1751579.9 NMax(S)=183174
   Maximum residual norm  :     0.001137270458

                       ****Iteration    3****
  T(sigma)=     7.362 sec T(BLAS)=    0.000 NAv(S)=1751579.9 NMax(S)=183174
   Maximum residual norm  :     0.000080204810

                       ****Iteration    4****
  T(sigma)=     7.719 sec T(BLAS)=    0.000 NAv(S)=1751579.9 NMax(S)=183174
   Maximum residual norm  :     0.000006033619

                       ****Iteration    5****
  T(sigma)=     7.352 sec T(BLAS)=    0.000 NAv(S)=1751579.9 NMax(S)=183174
   Maximum residual norm  :     0.000000656257

                       ****Iteration    6****
  T(sigma)=     7.383 sec T(BLAS)=    0.000 NAv(S)=1751579.9 NMax(S)=183174
   Maximum residual norm  :     0.000000070856

                       ****Iteration    7****
  T(sigma)=     7.397 sec T(BLAS)=    0.000 NAv(S)=1751579.9 NMax(S)=183174
   Maximum residual norm  :     0.000000003595

      *** CONVERGENCE OF RESIDUAL NORM REACHED ***
STATE   0 MULT= 2: E=  -4790.2819399844 Eh W=  0.5000 DE= 0.000 eV      0.0 cm**-1
      0.97004 ( 0.984905274) CSF = 2 2 2 2 2 2 2 2 2 2 2 2 2 2 2 2 2 2 2 2 2 2 2 2 1+0 0 0 0 0 0 0 0 
      0.00392 (-0.062584000) CSF = 2 2 2 2 2 2 2 2 2 2 2 2 2 2 2 2 2 2 2 2 2 2 2 0 1+2 0 0 0 0 0 0 0 
      0.00366 (-0.060467530) CSF = 2 2 2 2 2 2 2 2 2 2 2 2 2 2 2 2 2 2 2 2 2 2 2 0 1+0 2 0 0 0 0 0 0 

STATE   1 MULT= 2: E=  -4790.2794464248 Eh W=  0.5000 DE= 0.068 eV    547.3 cm**-1
      0.97007 (-0.984923160) CSF = 2 2 2 2 2 2 2 2 2 2 2 2 2 2 2 2 2 2 2 2 2 2 2 1+2 0 0 0 0 0 0 0 0 
      0.00369 ( 0.060762846) CSF = 2 2 2 2 2 2 2 2 2 2 2 2 2 2 2 2 2 2 2 2 2 2 2 1+0 0 2 0 0 0 0 0 0 
      0.00337 ( 0.058032530) CSF = 2 2 2 2 2 2 2 2 2 2 2 2 2 2 2 2 2 2 2 2 2 2 2 1+0 2 0 0 0 0 0 0 0 
      0.00280 ( 0.052879997) CSF = 2 2 2 2 2 2 2 2 2 2 2 2 2 2 2 2 2 2 2 2 2 2 2 0 1+1-1+0 0 0 0 0 0 

Resetting TVAR
   # of selected  CSFs                        ...  70893
   # of generator CSFs                        ...     70
   # of NEW generator CSFs                    ...     68
   # of S+D CSFs generated                    ... 4232608
   Selecting from the generated CSFs          ...    # of CSFs after Selection                  ... 415707
   # of NEW selected CSFs                     ... 344814

                  **********************************
                  *  ICECI/CSF MACROITERATION   2  *
                  **********************************

   # of selected CSFs                    ... 415707

                       ****Iteration    0****
  T(sigma)=   100.147 sec T(BLAS)=    0.000 NAv(S)=1891391.2 NMax(S)=221355
   Maximum residual norm  :     0.028296300787

                       ****Iteration    1****
  T(sigma)=   105.268 sec T(BLAS)=    0.000 NAv(S)=1891391.2 NMax(S)=221355
   Maximum residual norm  :     0.000459733773

                       ****Iteration    2****
  T(sigma)=   105.676 sec T(BLAS)=    0.000 NAv(S)=1891391.2 NMax(S)=221355
   Maximum residual norm  :     0.000835046725

                       ****Iteration    3****
  T(sigma)=   106.008 sec T(BLAS)=    0.000 NAv(S)=1891391.2 NMax(S)=221355
   Maximum residual norm  :     0.000057927367

                       ****Iteration    4****
  T(sigma)=   101.601 sec T(BLAS)=    0.000 NAv(S)=1891391.2 NMax(S)=221355
   Maximum residual norm  :     0.000006085855

                       ****Iteration    5****
  T(sigma)=   104.704 sec T(BLAS)=    0.000 NAv(S)=1891391.2 NMax(S)=221355
   Maximum residual norm  :     0.000001401447

                       ****Iteration    6****
  T(sigma)=   105.061 sec T(BLAS)=    0.000 NAv(S)=1891391.2 NMax(S)=221355
   Maximum residual norm  :     0.000000135026

                       ****Iteration    7****
  T(sigma)=   104.046 sec T(BLAS)=    0.000 NAv(S)=1891391.2 NMax(S)=221355
   Maximum residual norm  :     0.000000030523

                       ****Iteration    8****
  T(sigma)=   107.573 sec T(BLAS)=    0.000 NAv(S)=1891391.2 NMax(S)=221355

         *** CONVERGENCE OF ENERGIES REACHED ***
STATE   0 MULT= 2: E=  -4790.2842940584 Eh W=  0.5000 DE= 0.000 eV      0.0 cm**-1
      0.95967 ( 0.979627938) CSF = 2 2 2 2 2 2 2 2 2 2 2 2 2 2 2 2 2 2 2 2 2 2 2 2 1+0 0 0 0 0 0 0 0 
      0.00570 (-0.075530961) CSF = 2 2 2 2 2 2 2 2 2 2 2 2 2 2 2 2 2 2 2 2 2 2 2 0 1+2 0 0 0 0 0 0 0 
      0.00526 (-0.072492479) CSF = 2 2 2 2 2 2 2 2 2 2 2 2 2 2 2 2 2 2 2 2 2 2 2 0 1+0 2 0 0 0 0 0 0 
      0.00302 ( 0.054988010) CSF = 2 2 2 2 2 2 2 2 2 2 2 2 2 2 2 2 2 2 2 2 2 2 2 1+0 1-1+0 0 0 0 0 0 

STATE   1 MULT= 2: E=  -4790.2818087012 Eh W=  0.5000 DE= 0.068 eV    545.5 cm**-1
      0.95965 ( 0.979617675) CSF = 2 2 2 2 2 2 2 2 2 2 2 2 2 2 2 2 2 2 2 2 2 2 2 1+2 0 0 0 0 0 0 0 0 
      0.00542 (-0.073600658) CSF = 2 2 2 2 2 2 2 2 2 2 2 2 2 2 2 2 2 2 2 2 2 2 2 1+0 0 2 0 0 0 0 0 0 
      0.00491 (-0.070057848) CSF = 2 2 2 2 2 2 2 2 2 2 2 2 2 2 2 2 2 2 2 2 2 2 2 1+0 2 0 0 0 0 0 0 0 
      0.00407 (-0.063812871) CSF = 2 2 2 2 2 2 2 2 2 2 2 2 2 2 2 2 2 2 2 2 2 2 2 0 1+1-1+0 0 0 0 0 0 
      0.00280 (-0.052891754) CSF = 2 2 2 2 2 2 2 2 2 2 2 2 2 2 2 2 2 2 2 2 2 2 2 0 2 1+0 0 0 0 0 0 0 

Resetting TVAR
   # of selected  CSFs                        ... 415707
   # of generator CSFs                        ...     76
   # of NEW generator CSFs                    ...      6
   # of S+D CSFs generated                    ... 786469
   Selecting from the generated CSFs          ...    # of CSFs after Selection                  ... 439402
   # of NEW selected CSFs                     ...  23695
   maximum energy change                ... 2.354e-03 Eh

                  **********************************
                  *  ICECI/CSF MACROITERATION   3  *
                  **********************************

   # of selected CSFs                    ... 439402

                       ****Iteration    0****
  T(sigma)=   132.254 sec T(BLAS)=    0.000 NAv(S)=1905877.7 NMax(S)=229295
   Maximum residual norm  :     0.000546680672

                       ****Iteration    1****
  T(sigma)=   134.558 sec T(BLAS)=    0.000 NAv(S)=1905877.7 NMax(S)=229295
   Maximum residual norm  :     0.000004713084

                       ****Iteration    2****
  T(sigma)=   132.372 sec T(BLAS)=    0.000 NAv(S)=1905877.7 NMax(S)=229295
   Maximum residual norm  :     0.000000845830

                       ****Iteration    3****
  T(sigma)=   135.450 sec T(BLAS)=    0.000 NAv(S)=1905877.7 NMax(S)=229295
   Maximum residual norm  :     0.000000137489

                       ****Iteration    4****
  T(sigma)=   133.039 sec T(BLAS)=    0.000 NAv(S)=1905877.7 NMax(S)=229295
   Maximum residual norm  :     0.000000016128

                       ****Iteration    5****
  T(sigma)=   134.943 sec T(BLAS)=    0.000 NAv(S)=1905877.7 NMax(S)=229295

         *** CONVERGENCE OF ENERGIES REACHED ***
STATE   0 MULT= 2: E=  -4790.2843380555 Eh W=  0.5000 DE= 0.000 eV      0.0 cm**-1
      0.95957 ( 0.979575951) CSF = 2 2 2 2 2 2 2 2 2 2 2 2 2 2 2 2 2 2 2 2 2 2 2 2 1+0 0 0 0 0 0 0 0 
      0.00570 (-0.075509303) CSF = 2 2 2 2 2 2 2 2 2 2 2 2 2 2 2 2 2 2 2 2 2 2 2 0 1+2 0 0 0 0 0 0 0 
      0.00525 (-0.072483680) CSF = 2 2 2 2 2 2 2 2 2 2 2 2 2 2 2 2 2 2 2 2 2 2 2 0 1+0 2 0 0 0 0 0 0 
      0.00303 ( 0.055000179) CSF = 2 2 2 2 2 2 2 2 2 2 2 2 2 2 2 2 2 2 2 2 2 2 2 1+0 1-1+0 0 0 0 0 0 

STATE   1 MULT= 2: E=  -4790.2818434604 Eh W=  0.5000 DE= 0.068 eV    547.5 cm**-1
      0.95957 (-0.979576755) CSF = 2 2 2 2 2 2 2 2 2 2 2 2 2 2 2 2 2 2 2 2 2 2 2 1+2 0 0 0 0 0 0 0 0 
      0.00541 ( 0.073583486) CSF = 2 2 2 2 2 2 2 2 2 2 2 2 2 2 2 2 2 2 2 2 2 2 2 1+0 0 2 0 0 0 0 0 0 
      0.00491 ( 0.070051224) CSF = 2 2 2 2 2 2 2 2 2 2 2 2 2 2 2 2 2 2 2 2 2 2 2 1+0 2 0 0 0 0 0 0 0 
      0.00407 ( 0.063821914) CSF = 2 2 2 2 2 2 2 2 2 2 2 2 2 2 2 2 2 2 2 2 2 2 2 0 1+1-1+0 0 0 0 0 0 
      0.00280 ( 0.052938582) CSF = 2 2 2 2 2 2 2 2 2 2 2 2 2 2 2 2 2 2 2 2 2 2 2 0 2 1+0 0 0 0 0 0 0 

Resetting TVAR
   # of selected  CSFs                        ... 439402
   # of generator CSFs                        ...     77
   # of NEW generator CSFs                    ...      1
   # of S+D CSFs generated                    ...  96330
   Selecting from the generated CSFs          ...    # of CSFs after Selection                  ... 442626
   # of NEW selected CSFs                     ...   3224
   maximum energy change                ... 4.309e-05 Eh

                  **********************************
                  *  ICECI/CSF MACROITERATION   4  *
                  **********************************

   # of selected CSFs                    ... 442626

                       ****Iteration    0****
  T(sigma)=   136.085 sec T(BLAS)=    0.000 NAv(S)=1906641.5 NMax(S)=187840
   Maximum residual norm  :     0.000149798227

                       ****Iteration    1****
  T(sigma)=   139.743 sec T(BLAS)=    0.000 NAv(S)=1906641.5 NMax(S)=187840
   Maximum residual norm  :     0.000001064881

                       ****Iteration    2****
  T(sigma)=   136.104 sec T(BLAS)=    0.000 NAv(S)=1906641.5 NMax(S)=187840
   Maximum residual norm  :     0.000000130175

                       ****Iteration    3****
  T(sigma)=   137.310 sec T(BLAS)=    0.000 NAv(S)=1906641.5 NMax(S)=187840
   Maximum residual norm  :     0.000000025165

                       ****Iteration    4****
  T(sigma)=   139.221 sec T(BLAS)=    0.000 NAv(S)=1906641.5 NMax(S)=187840

         *** CONVERGENCE OF ENERGIES REACHED ***
STATE   0 MULT= 2: E=  -4790.2843495987 Eh W=  0.5000 DE= 0.000 eV      0.0 cm**-1
      0.95957 (-0.979575466) CSF = 2 2 2 2 2 2 2 2 2 2 2 2 2 2 2 2 2 2 2 2 2 2 2 2 1+0 0 0 0 0 0 0 0 
      0.00570 ( 0.075484661) CSF = 2 2 2 2 2 2 2 2 2 2 2 2 2 2 2 2 2 2 2 2 2 2 2 0 1+2 0 0 0 0 0 0 0 
      0.00525 ( 0.072459055) CSF = 2 2 2 2 2 2 2 2 2 2 2 2 2 2 2 2 2 2 2 2 2 2 2 0 1+0 2 0 0 0 0 0 0 
      0.00302 (-0.054981913) CSF = 2 2 2 2 2 2 2 2 2 2 2 2 2 2 2 2 2 2 2 2 2 2 2 1+0 1-1+0 0 0 0 0 0 

STATE   1 MULT= 2: E=  -4790.2818441120 Eh W=  0.5000 DE= 0.068 eV    549.9 cm**-1
      0.95958 (-0.979580594) CSF = 2 2 2 2 2 2 2 2 2 2 2 2 2 2 2 2 2 2 2 2 2 2 2 1+2 0 0 0 0 0 0 0 0 
      0.00541 ( 0.073570247) CSF = 2 2 2 2 2 2 2 2 2 2 2 2 2 2 2 2 2 2 2 2 2 2 2 1+0 0 2 0 0 0 0 0 0 
      0.00491 ( 0.070040807) CSF = 2 2 2 2 2 2 2 2 2 2 2 2 2 2 2 2 2 2 2 2 2 2 2 1+0 2 0 0 0 0 0 0 0 
      0.00407 ( 0.063811241) CSF = 2 2 2 2 2 2 2 2 2 2 2 2 2 2 2 2 2 2 2 2 2 2 2 0 1+1-1+0 0 0 0 0 0 
      0.00280 ( 0.052934419) CSF = 2 2 2 2 2 2 2 2 2 2 2 2 2 2 2 2 2 2 2 2 2 2 2 0 2 1+0 0 0 0 0 0 0 

Resetting TVAR
   # of selected  CSFs                        ... 442626
   # of generator CSFs                        ...     77
   # of NEW generator CSFs                    ...      0


FINAL CIPSI ENERGIES
  Final CIPSI Energy Root   0:  -4790.284349599 EH
  Final CIPSI Energy Root   1:  -4790.281844112 EH
   CI-PROBLEM SOLVED (2686.7 sec)
   DENSITIES MADE

                 <<<<<<<<<<<<<<<<<<INITIAL CI STATE CHECK>>>>>>>>>>>>>>>>>>

BLOCK  0 MULT= 2 NROOTS= 2 
STATE   0 MULT= 2: E=  -4790.2843495987 Eh W=  0.5000 DE= 0.000 eV      0.0 cm**-1
      0.95957 (-0.979575466) CSF = 2 2 2 2 2 2 2 2 2 2 2 2 2 2 2 2 2 2 2 2 2 2 2 2 1+0 0 0 0 0 0 0 0 
      0.00570 ( 0.075484661) CSF = 2 2 2 2 2 2 2 2 2 2 2 2 2 2 2 2 2 2 2 2 2 2 2 0 1+2 0 0 0 0 0 0 0 
      0.00525 ( 0.072459055) CSF = 2 2 2 2 2 2 2 2 2 2 2 2 2 2 2 2 2 2 2 2 2 2 2 0 1+0 2 0 0 0 0 0 0 
      0.00302 (-0.054981913) CSF = 2 2 2 2 2 2 2 2 2 2 2 2 2 2 2 2 2 2 2 2 2 2 2 1+0 1-1+0 0 0 0 0 0 

STATE   1 MULT= 2: E=  -4790.2818441120 Eh W=  0.5000 DE= 0.068 eV    549.9 cm**-1
      0.95958 (-0.979580594) CSF = 2 2 2 2 2 2 2 2 2 2 2 2 2 2 2 2 2 2 2 2 2 2 2 1+2 0 0 0 0 0 0 0 0 
      0.00541 ( 0.073570247) CSF = 2 2 2 2 2 2 2 2 2 2 2 2 2 2 2 2 2 2 2 2 2 2 2 1+0 0 2 0 0 0 0 0 0 
      0.00491 ( 0.070040807) CSF = 2 2 2 2 2 2 2 2 2 2 2 2 2 2 2 2 2 2 2 2 2 2 2 1+0 2 0 0 0 0 0 0 0 
      0.00407 ( 0.063811241) CSF = 2 2 2 2 2 2 2 2 2 2 2 2 2 2 2 2 2 2 2 2 2 2 2 0 1+1-1+0 0 0 0 0 0 
      0.00280 ( 0.052934419) CSF = 2 2 2 2 2 2 2 2 2 2 2 2 2 2 2 2 2 2 2 2 2 2 2 0 2 1+0 0 0 0 0 0 0 


                 <<<<<<<<<<<<<<<<<<INITIAL CI STATE CHECK>>>>>>>>>>>>>>>>>>

   E(CAS)= -4790.283096855 Eh DE=    0.000000e+00
   --- Energy gap subspaces: Ext-Act = -7.159   Act-Int = -8.522
   N(occ)=  1.99948 1.99951 1.99957 1.99954 1.99995 1.99995 1.99995 1.99953 1.99912 1.99853 1.99901 1.99762 1.99699 1.99727 1.99583 1.99512 1.99526 1.99945 1.99932 1.99936 1.99937 1.99945 1.99931 1.47890 1.48024 0.03052 0.02944 0.01036 0.00045 0.00045 0.00039 0.00039 0.00037
   ||g|| =     3.812843e-01 Max(G)=    2.261435e-01 Rot=117,15
--------------
CASSCF RESULTS
--------------

Final CASSCF energy       : -4790.283096855 Eh -130350.2299 eV

----------------
ORBITAL ENERGIES
----------------

  NO   OCC          E(Eh)            E(eV) 
   0   2.0000    -738.692146    -20100.8352 
   1   2.0000    -107.137970     -2915.3724 
   2   2.0000     -95.595495     -2601.2857 
   3   2.0000     -95.599874     -2601.4048 
   4   2.0000     -95.599823     -2601.4034 
   5   2.0000     -19.429695      -528.7089 
   6   2.0000     -15.533300      -422.6826 
   7   2.0000     -15.550293      -423.1450 
   8   2.0000     -15.550236      -423.1434 
   9   2.0000      -0.667116       -18.1531 
  10   2.0000      -0.672433       -18.2978 
  11   2.0000      -0.655604       -17.8399 
  12   2.0000      -0.643187       -17.5020 
  13   2.0000      -0.641399       -17.4533 
  14   2.0000      -0.646027       -17.5793 
  15   2.0000      -1.744390       -47.4673 
  16   2.0000      -1.743314       -47.4380 
  17   2.0000      -1.742827       -47.4247 
  18   2.0000     -15.390639      -418.8006 
  19   2.0000      -0.636672       -17.3247 
  20   2.0000     -15.511857      -422.0991 
  21   2.0000      -0.643221       -17.5029 
  22   2.0000     -15.386802      -418.6962 
  23   2.0000      -0.651519       -17.7287 
  24   2.0000     -15.437256      -420.0691 
  25   2.0000      -0.639642       -17.4055 
  26   2.0000     -15.415688      -419.4822 
  27   2.0000      -0.647194       -17.6110 
  28   2.0000     -11.186669      -304.4047 
  29   2.0000     -11.202632      -304.8391 
  30   2.0000     -11.217608      -305.2466 
  31   2.0000     -11.217453      -305.2424 
  32   2.0000     -11.203694      -304.8680 
  33   2.0000     -11.199829      -304.7628 
  34   2.0000     -11.162251      -303.7403 
  35   2.0000     -11.196805      -304.6806 
  36   2.0000     -11.213470      -305.1340 
  37   2.0000     -11.196302      -304.6669 
  38   2.0000     -11.162038      -303.7345 
  39   2.0000     -11.153160      -303.4929 
  40   2.0000      -0.637732       -17.3536 
  41   2.0000      -0.647320       -17.6145 
  42   2.0000      -0.642468       -17.4825 
  43   2.0000      -0.642639       -17.4871 
  44   2.0000      -0.637817       -17.3559 
  45   2.0000      -0.795289       -21.6409 
  46   2.0000      -0.722383       -19.6570 
  47   2.0000      -0.798350       -21.7242 
  48   2.0000      -0.648543       -17.6478 
  49   2.0000      -0.723255       -19.6808 
  50   2.0000      -0.638002       -17.3609 
  51   2.0000      -0.696177       -18.9439 
  52   2.0000      -0.634545       -17.2669 
  53   2.0000      -0.798612       -21.7313 
  54   2.0000      -0.717838       -19.5334 
  55   2.0000      -0.629409       -17.1271 
  56   2.0000      -0.693008       -18.8577 
  57   2.0000      -0.683885       -18.6095 
  58   2.0000      -0.629561       -17.1312 
  59   2.0000      -0.672185       -18.2911 
  60   2.0000      -0.668087       -18.1796 
  61   2.0000      -0.655453       -17.8358 
  62   2.0000      -0.644932       -17.5495 
  63   2.0000      -0.668951       -18.2031 
  64   2.0000      -0.664412       -18.0796 
  65   1.9995      -9.167657      -249.4646 
  66   1.9995      -9.186032      -249.9647 
  67   1.9996      -9.184977      -249.9359 
  68   1.9995      -9.183892      -249.9064 
  69   2.0000      -0.808747       -22.0071 
  70   2.0000      -0.808487       -22.0001 
  71   1.9999      -0.809990       -22.0410 
  72   1.9995      -9.186579      -249.9795 
  73   1.9991      -2.871194       -78.1292 
  74   1.9985      -0.798755       -21.7352 
  75   1.9990      -0.712394       -19.3852 
  76   1.9976      -0.804704       -21.8971 
  77   1.9970      -0.812782       -22.1169 
  78   1.9973      -0.830843       -22.6084 
  79   1.9958      -0.391796       -10.6613 
  80   1.9951      -0.387314       -10.5393 
  81   1.9953      -0.389510       -10.5991 
  82   1.9994      -0.796310       -21.6687 
  83   1.9993      -0.742428       -20.2025 
  84   1.9994      -0.745349       -20.2820 
  85   1.9994      -0.790983       -21.5237 
  86   1.9994      -0.746612       -20.3164 
  87   1.9993      -0.786523       -21.4024 
  88   1.4789      -0.133779        -3.6403 
  89   1.4802      -0.131897        -3.5891 
  90   0.0305       0.236364         6.4318 
  91   0.0294       0.239967         6.5298 
  92   0.0104       0.326791         8.8924 
  93   0.0005       7.817904       212.7360 
  94   0.0005       7.826617       212.9731 
  95   0.0004       7.943636       216.1573 
  96   0.0004       7.955640       216.4840 
  97   0.0004       8.077346       219.7958 
  98   0.0000       0.917929        24.9781 
  99   0.0000       1.116506        30.3817 
 100   0.0000       1.159526        31.5523 
 101   0.0000       1.189446        32.3665 
 102   0.0000       1.217766        33.1371 
 103   0.0000       1.439639        39.1746 
 104   0.0000       1.477277        40.1988 
 105   0.0000       1.533550        41.7300 
 106   0.0000       1.598158        43.4881 
 107   0.0000       1.606895        43.7258 
 108   0.0000       1.759042        47.8660 
 109   0.0000       1.862254        50.6745 
 110   0.0000       2.221909        60.4612 
 111   0.0000       2.235432        60.8292 
 112   0.0000       2.260630        61.5149 
 113   0.0000       2.270509        61.7837 
 114   0.0000       2.284878        62.1747 
 115   0.0000       2.323251        63.2189 
 116   0.0000       2.334536        63.5259 
 117   0.0000       2.385018        64.8996 
 118   0.0000       2.435667        66.2779 
 119   0.0000       2.698895        73.4407 
 120   0.0000       2.760580        75.1192 
 121   0.0000       2.837628        77.2158 
 122   0.0000       3.342447        90.9526 
 123   0.0000       4.534469       123.3892 
 124   0.0000       4.546844       123.7259 
 125   0.0000       4.723504       128.5331 
 126   0.0000       0.487832        13.2746 
 127   0.0000       0.549188        14.9442 
 128   0.0000       0.592951        16.1350 
 129   0.0000       0.656483        17.8638 
 130   0.0000       0.851989        23.1838 
 131   0.0000      10.726460       291.8818 
 132   0.0000      18.044339       491.0114 
 133   0.0000      18.049643       491.1558 
 134   0.0000      18.173554       494.5276 
 135   0.0000      39.006646      1061.4248 
 136   0.0000      77.276768      2102.8078 
 137   0.0000      77.280632      2102.9129 
 138   0.0000      77.367304      2105.2714 
 139   0.0000     140.181490      3814.5323 
 140   0.0000     334.036171      9089.5863 
 141   0.0000     334.038981      9089.6628 
 142   0.0000     334.099601      9091.3123 
 143   0.0000     458.438641     12474.7496 
 144   0.0000    1337.470830     36394.4315 
 145   0.0000    3493.006335     95049.5346 
 146   0.0000   10534.516934    286658.7792 
 147   0.0000       3.258287        88.6625 
 148   0.0000       2.968308        80.7718 
 149   0.0000       2.274833        61.9014 
 150   0.0000       4.815873       131.0466 
 151   0.0000       4.507907       122.6664 
 152   0.0000       3.267002        88.8996 
 153   0.0000       7.331644       199.5042 
 154   0.0000       2.967720        80.7558 
 155   0.0000       5.012295       136.3915 
 156   0.0000       1.856227        50.5105 
 157   0.0000       7.509516       204.3443 
 158   0.0000       2.321466        63.1703 
 159   0.0000       2.962207        80.6057 
 160   0.0000       5.013617       136.4274 
 161   0.0000      47.832237      1301.5813 
 162   0.0000      11.550564       314.3068 
 163   0.0000       4.818696       131.1234 
 164   0.0000       4.993337       135.8756 
 165   0.0000       3.384398        92.0941 
 166   0.0000       3.266551        88.8874 
 167   0.0000       4.815066       131.0246 
 168   0.0000       4.515617       122.8762 
 169   0.0000       2.290803        62.3359 
 170   0.0000       5.057937       137.6334 
 171   0.0000       7.616834       207.2646 
 172   0.0000       3.377573        91.9084 
 173   0.0000       3.211011        87.3761 
 174   0.0000       1.377349        37.4796 
 175   0.0000       3.932215       107.0010 
 176   0.0000       3.180372        86.5423 
 177   0.0000       4.630755       126.0092 
 178   0.0000       3.315284        90.2135 
 179   0.0000       3.177614        86.4673 
 180   0.0000       0.926110        25.2007 
 181   0.0000       0.928253        25.2591 
 182   0.0000       2.275556        61.9210 
 183   0.0000       4.636381       126.1623 
 184   0.0000       3.520401        95.7950 
 185   0.0000       7.193973       195.7580 
 186   0.0000       4.208267       114.5128 
 187   0.0000       6.207028       168.9018 
 188   0.0000       0.946318        25.7506 
 189   0.0000       3.932045       106.9964 
 190   0.0000       2.924332        79.5751 
 191   0.0000       2.256475        61.4018 
 192   0.0000       3.201759        87.1243 
 193   0.0000       7.897909       214.9130 
 194   0.0000       4.504352       122.5697 
 195   0.0000       4.077144       110.9447 
 196   0.0000       7.320900       199.2118 
 197   0.0000      49.903005      1357.9298 
 198   0.0000       4.039609       109.9233 
 199   0.0000       6.738914       183.3752 
 200   0.0000       2.911457        79.2248 
 201   0.0000       3.926738       106.8520 
 202   0.0000       3.634343        98.8955 
 203   0.0000       2.929331        79.7111 
 204   0.0000       3.288860        89.4944 
 205   0.0000       3.564183        96.9863 
 206   0.0000       4.868466       132.4777 
 207   0.0000       4.688398       127.5778 
 208   0.0000      19.648019       534.6498 
 209   0.0000       3.514786        95.6422 
 210   0.0000       3.356372        91.3315 
 211   0.0000       1.991071        54.1798 
 212   0.0000       4.402547       119.7994 
 213   0.0000       1.733850        47.1804 
 214   0.0000      40.478042      1101.4635 
 215   0.0000       3.183616        86.6306 
 216   0.0000       1.220567        33.2133 
 217   0.0000       4.431625       120.5906 
 218   0.0000       4.657370       126.7335 
 219   0.0000       6.507778       177.0856 
 220   0.0000       4.277003       116.3832 
 221   0.0000       4.791147       130.3737 
 222   0.0000       7.637543       207.8281 
 223   0.0000       4.911647       133.6527 
 224   0.0000       7.021839       191.0740 
 225   0.0000       2.023324        55.0574 
 226   0.0000       2.993067        81.4455 
 227   0.0000       3.920267       106.6759 
 228   0.0000       3.555179        96.7414 
 229   0.0000       3.458784        94.1183 
 230   0.0000       1.981834        53.9284 
 231   0.0000       4.802360       130.6789 
 232   0.0000      40.544888      1103.2825 
 233   0.0000       1.189130        32.3579 
 234   0.0000       3.807878       103.6176 
 235   0.0000       1.734590        47.2006 
 236   0.0000       3.147346        85.6436 
 237   0.0000       2.938818        79.9693 
 238   0.0000       6.386981       173.7986 
 239   0.0000       8.727202       237.4792 
 240   0.0000       4.635623       126.1417 
 241   0.0000       4.255164       115.7889 
 242   0.0000       4.596392       125.0742 
 243   0.0000       3.610309        98.2415 
 244   0.0000       3.377430        91.9045 
 245   0.0000       3.001765        81.6822 
 246   0.0000       4.684446       127.4703 
 247   0.0000       6.100955       166.0154 
 248   0.0000       3.520186        95.7891 
 249   0.0000       4.365293       118.7857 
 250   0.0000       4.374782       119.0439 
 251   0.0000      20.267413       551.5043 
 252   0.0000       1.998777        54.3895 
 253   0.0000       3.612785        98.3089 
 254   0.0000       4.765177       129.6671 
 255   0.0000       8.670268       235.9300 
 256   0.0000       4.398808       119.6977 
 257   0.0000       4.821819       131.2084 
 258   0.0000       4.807590       130.8212 
 259   0.0000       1.714783        46.6616 
 260   0.0000       3.470080        94.4257 
 261   0.0000       1.975991        53.7695 
 262   0.0000       3.792722       103.2052 
 263   0.0000       3.542338        96.3919 
 264   0.0000      40.813176      1110.5830 
 265   0.0000       4.664469       126.9266 
 266   0.0000       2.938928        79.9723 
 267   0.0000       3.583603        97.5148 
 268   0.0000       3.620659        98.5231 
 269   0.0000       3.600113        97.9640 
 270   0.0000       1.186083        32.2750 
 271   0.0000       3.004950        81.7688 
 272   0.0000       6.458996       175.7582 
 273   0.0000       3.388039        92.1932 
 274   0.0000       4.247996       115.5939 
 275   0.0000       3.136459        85.3474 
 276   0.0000      19.899206       541.4849 
 277   0.0000       4.586334       124.8005 
 278   0.0000       5.927759       161.3025 
 279   0.0000       4.755943       129.4158 
 280   0.0000       4.378272       119.1388 
 281   0.0000       2.006542        54.6008 
 282   0.0000       1.009114        27.4594 
 283   0.0000       2.968977        80.7900 
 284   0.0000       0.829389        22.5688 
 285   0.0000       2.545877        69.2768 
 286   0.0000       6.502134       176.9321 
 287   0.0000       5.516471       150.1108 
 288   0.0000       3.019265        82.1584 
 289   0.0000       2.200050        59.8664 
 290   0.0000       3.470462        94.4361 
 291   0.0000       2.189011        59.5660 
 292   0.0000       3.542339        96.3919 
 293   0.0000       3.309714        90.0619 
 294   0.0000       2.001759        54.4706 
 295   0.0000       3.114919        84.7613 
 296   0.0000       3.458766        94.1178 
 297   0.0000       3.281271        89.2879 
 298   0.0000       2.703100        73.5551 
 299   0.0000       3.295310        89.6699 
 300   0.0000       6.443987       175.3498 
 301   0.0000       2.566932        69.8498 
 302   0.0000       0.879028        23.9196 
 303   0.0000       5.457471       148.5053 
 304   0.0000       2.304343        62.7044 
 305   0.0000       2.950089        80.2760 
 306   0.0000       2.524114        68.6846 
 307   0.0000       2.657141        72.3045 
 308   0.0000      33.754272       918.5004 
 309   0.0000       2.779111        75.6235 
 310   0.0000       0.976032        26.5592 
 311   0.0000       1.166186        31.7335 
 312   0.0000       6.519046       177.3923 
 313   0.0000       2.609890        71.0187 
 314   0.0000       2.435820        66.2820 
 315   0.0000       2.278434        61.9993 
 316   0.0000       6.183622       168.2649 
 317   0.0000       2.675871        72.8141 
 318   0.0000       3.095391        84.2299 
 319   0.0000       3.544044        96.4383 
 320   0.0000       2.251514        61.2668 
 321   0.0000       3.077624        83.7464 
 322   0.0000       3.508669        95.4757 
 323   0.0000      33.790736       919.4927 
 324   0.0000       3.199943        87.0749 
 325   0.0000       3.120868        84.9231 
 326   0.0000       2.921970        79.5108 
 327   0.0000       2.452358        66.7320 
 328   0.0000       0.933945        25.4139 
 329   0.0000       2.959774        80.5395 
 330   0.0000       4.031472       109.7019 
 331   0.0000       5.105508       138.9279 
 332   0.0000       2.868598        78.0585 
 333   0.0000       5.237036       142.5070 
 334   0.0000       1.761639        47.9366 
 335   0.0000       3.474122        94.5357 
 336   0.0000      33.783087       919.2845 
 337   0.0000       2.271050        61.7984 
 338   0.0000       2.688765        73.1650 
 339   0.0000       3.360103        91.4331 
 340   0.0000       2.904682        79.0404 
 341   0.0000       5.155444       140.2868 
 342   0.0000       2.340904        63.6992 
 343   0.0000       2.551941        69.4418 
 344   0.0000       2.153455        58.5985 
 345   0.0000       3.606050        98.1256 
 346   0.0000       2.359399        64.2025 
 347   0.0000       2.812371        76.5285 
 348   0.0000       0.972562        26.4648 
 349   0.0000       3.104452        84.4764 
 350   0.0000       3.490774        94.9888 
 351   0.0000       2.396692        65.2173 
 352   0.0000       1.197333        32.5811 
 353   0.0000       3.272965        89.0619 
 354   0.0000       5.556342       151.1957 
 355   0.0000       2.770988        75.4024 
 356   0.0000       3.432416        93.4008 
 357   0.0000       2.613983        71.1301 
 358   0.0000       6.329540       172.2355 
 359   0.0000       3.531432        96.0951 
 360   0.0000       6.703590       182.4139 
 361   0.0000       2.622451        71.3605 
 362   0.0000       1.040748        28.3202 
 363   0.0000       1.198833        32.6219 
 364   0.0000       2.697377        73.3994 
 365   0.0000       1.028096        27.9759 
 366   0.0000       3.429655        93.3256 
 367   0.0000       5.158884       140.3804 
 368   0.0000       2.157415        58.7062 
 369   0.0000       3.630693        98.7962 
 370   0.0000       2.609530        71.0089 
 371   0.0000       3.368834        91.6706 
 372   0.0000       2.769709        75.3676 
 373   0.0000       2.269651        61.7603 
 374   0.0000       2.913699        79.2858 
 375   0.0000       5.557427       151.2253 
 376   0.0000       3.536308        96.2278 
 377   0.0000       2.809594        76.4530 
 378   0.0000       0.968698        26.3596 
 379   0.0000       2.348344        63.9017 
 380   0.0000       6.360323       173.0732 
 381   0.0000       3.281895        89.3049 
 382   0.0000       3.491720        95.0145 
 383   0.0000       2.550502        69.4027 
 384   0.0000      33.765512       918.8063 
 385   0.0000       2.339322        63.6562 
 386   0.0000       6.661036       181.2560 
 387   0.0000       2.404351        65.4257 
 388   0.0000       2.620961        71.3200 
 389   0.0000       3.103646        84.4545 
 390   0.0000       0.963832        26.2272 
 391   0.0000       1.728887        47.0454 
 392   0.0000       2.639349        71.8203 
 393   0.0000       2.879233        78.3479 
 394   0.0000       2.275235        61.9123 
 395   0.0000       3.530619        96.0730 
 396   0.0000      33.786907       919.3885 
 397   0.0000       6.227197       169.4506 
 398   0.0000       0.933953        25.4141 
 399   0.0000       3.090273        84.0906 
 400   0.0000       3.140148        85.4478 
 401   0.0000       2.462046        66.9957 
 402   0.0000       2.920501        79.4709 
 403   0.0000       3.200142        87.0803 
 404   0.0000       3.089062        84.0576 
 405   0.0000       5.083911       138.3403 
 406   0.0000       3.473051        94.5065 
 407   0.0000       2.422979        65.9326 
 408   0.0000       4.052095       110.2631 
 409   0.0000       5.223366       142.1350 
 410   0.0000       2.667636        72.5901 
 411   0.0000       3.495199        95.1092 
 412   0.0000       2.972779        80.8934 
 413   0.0000       6.485112       176.4689 
 414   0.0000       2.253755        61.3278 
 415   0.0000       1.169754        31.8306 
 416   0.0000       2.762254        75.1647 
 417   0.0000       2.301597        62.6296 
 418   0.0000      33.769119       918.9044 
 419   0.0000       0.836594        22.7649 
 420   0.0000       2.562404        69.7265 
 421   0.0000       3.063327        83.3574 
 422   0.0000       6.410455       174.4373 
 423   0.0000       3.453104        93.9637 
 424   0.0000       3.525912        95.9450 
 425   0.0000       2.603614        70.8479 
 426   0.0000       3.391975        92.3003 
 427   0.0000       2.964915        80.6794 
 428   0.0000       2.171182        59.0809 
 429   0.0000       3.290525        89.5397 
 430   0.0000       0.873062        23.7572 
 431   0.0000       6.478480       176.2884 
 432   0.0000       3.235458        88.0413 
 433   0.0000       3.430865        93.3586 
 434   0.0000       1.036157        28.1953 
 435   0.0000       5.513447       150.0285 
 436   0.0000       2.539707        69.1089 
 437   0.0000       5.494002       149.4994 
 438   0.0000       2.549788        69.3833 
 439   0.0000       2.737046        74.4788 
 440   0.0000       2.047348        55.7112 
 441   0.0000       2.984853        81.2220 
 442   0.0000       2.153493        58.5995 
 443   0.0000       2.972846        80.8952 
 444   0.0000       1.056816        28.7574 
 445   0.0000       3.408700        92.7554 
 446   0.0000       0.990699        26.9583 
 447   0.0000       6.184734       168.2952 
 448   0.0000       2.139209        58.2108 
 449   0.0000       0.979734        26.6599 
 450   0.0000       6.145099       167.2167 
 451   0.0000       2.993199        81.4491 
 452   0.0000       3.095871        84.2429 
 453   0.0000       2.898494        78.8720 
 454   0.0000       2.154452        58.6256 
 455   0.0000       3.101492        84.3959 
 456   0.0000       1.037720        28.2378 
 457   0.0000       2.436448        66.2991 
 458   0.0000       2.160457        58.7890 
 459   0.0000       2.244042        61.0635 
 460   0.0000       2.429469        66.1092 
 461   0.0000       3.266108        88.8753 
 462   0.0000       5.862206       159.5187 
 463   0.0000      33.796834       919.6586 
 464   0.0000       2.880043        78.3700 
 465   0.0000       5.756162       156.6331 
 466   0.0000       2.113157        57.5019 
 467   0.0000       2.546054        69.2816 
 468   0.0000       3.395919        92.4076 
 469   0.0000       2.434432        66.2443 
 470   0.0000       2.956147        80.4408 
 471   0.0000       2.465007        67.0762 
 472   0.0000      33.771307       918.9640 
 473   0.0000       1.160786        31.5866 
 474   0.0000       3.526247        95.9541 
 475   0.0000       2.591372        70.5148 
 476   0.0000       6.379838       173.6042 
 477   0.0000       4.049440       110.1909 
 478   0.0000       5.277432       143.6062 
 479   0.0000       5.151235       140.1722 
 480   0.0000       3.099782        84.3494 
 481   0.0000       1.788845        48.6769 
 482   0.0000       3.439430        93.5917 
 483   0.0000       2.286781        62.2265 
 484   0.0000       1.008109        27.4320 
 485   0.0000       2.915947        79.3469 
 486   0.0000       0.948489        25.8097 
 487   0.0000       3.190835        86.8270 
 488   0.0000       2.935716        79.8849 
 489   0.0000       2.453227        66.7557 
 490   0.0000       2.247564        61.1593 
 491   0.0000       2.665663        72.5364 
 492   0.0000       2.985641        81.2434 
 493   0.0000       3.162776        86.0635 
 494   0.0000       2.795507        76.0696 
 495   0.0000       3.072439        83.6053 
 496   0.0000       3.483687        94.7959 
 497   0.0000       6.326299       172.1474 
 498   0.0000       2.931886        79.7807 
 499   0.0000       5.605329       152.5288 
 500   0.0000       2.152454        58.5713 
 501   0.0000       2.395918        65.1962 
 502   0.0000       1.026000        27.9189 
 503   0.0000       2.778685        75.6119 
 504   0.0000       2.620298        71.3019 
 505   0.0000       3.103162        84.4413 
 506   0.0000       3.490093        94.9702 
 507   0.0000       6.686414       181.9466 
 508   0.0000       2.566465        69.8371 
 509   0.0000       2.309691        62.8499 
 510   0.0000       1.191048        32.4101 
 511   0.0000       3.290973        89.5519 
 512   0.0000      33.767037       918.8478 
 513   0.0000       6.376324       173.5086 
 514   0.0000       3.424599        93.1881 
 515   0.0000       3.363290        91.5198 
 516   0.0000       3.534465        96.1777 
 517   0.0000       2.275651        61.9236 
 518   0.0000       2.629247        71.5454 
 519   0.0000       3.577952        97.3610 
 520   0.0000       2.809524        76.4510 
 521   0.0000       2.686960        73.1159 
 522   0.0000       2.392535        65.1042 
 523   0.0000       1.002262        27.2729 
 524   0.0000       5.158925       140.3815 
 525   0.0000       1.034857        28.1599 
 526   0.0000       2.952480        80.3411 
 527   0.0000       2.176023        59.2126 
 528   0.0000       0.868831        23.6421 
 529   0.0000       3.286617        89.4334 
 530   0.0000       2.535817        69.0031 
 531   0.0000       2.958600        80.5076 
 532   0.0000       3.458493        94.1104 
 533   0.0000       3.017434        82.1086 
 534   0.0000       2.540195        69.1222 
 535   0.0000       2.048855        55.7522 
 536   0.0000       6.474279       176.1741 
 537   0.0000       2.712658        73.8152 
 538   0.0000       2.613958        71.1294 
 539   0.0000       2.309193        62.8363 
 540   0.0000       3.447542        93.8124 
 541   0.0000       6.499155       176.8510 
 542   0.0000       3.239702        88.1568 
 543   0.0000       3.533010        96.1381 
 544   0.0000       5.471070       148.8754 
 545   0.0000       2.981406        81.1282 
 546   0.0000       2.178735        59.2864 
 547   0.0000       0.846791        23.0424 
 548   0.0000      33.807258       919.9423 
 549   0.0000       2.563211        69.7485 
 550   0.0000       3.336897        90.8016 
 551   0.0000       5.493466       149.4848 
 552   0.0000       0.980045        26.6684 
 553   0.0000       6.153125       167.4350 
[...]
                         0.177304    -0.421075    -0.000000 :     0    1  1/2 -1/2

 STATE   1:       0.0000
                         0.817175     0.245892    -0.869892 :     0    0  1/2  1/2
                         0.177304     0.405198     0.114537 :     0    1  1/2  1/2

 STATE   2:     852.0267
                         0.176114     0.000000     0.419660 :     0    0  1/2 -1/2
                         0.822696    -0.907026     0.000000 :     0    1  1/2 -1/2

 STATE   3:     852.0267
                         0.176114    -0.114152     0.403836 :     0    0  1/2  1/2
                         0.822696     0.872825     0.246721 :     0    1  1/2  1/2


--------------------------------------------
           ZERO-FIELD SPLITTING
(2ND ORDER SPIN-ORBIT COUPLING CONTRIBUTION)
--------------------------------------------

# The ground state multiplicity is smaller than 3. No D-tensor.


  *** Storing geometry in DTensor axis frame as mol.CAS_DTensor_HEFF_rotated.xyz  ***

--------------
KRAMERS PAIR 1
--------------

Matrix elements Re<1|S|1>   -0.066767  -0.007333  -0.494479 
Matrix elements Re<1|S|2>    0.305442  -0.088336  -0.062255 
Matrix elements Im<1|S|2>    0.085716   0.310302  -0.025218 
Matrix elements Re<1|L|1>   -0.057080  -0.005241  -0.701398 
Matrix elements Re<1|L|2>   -0.004349  -0.000399  -0.053435 
Matrix elements Im<1|L|2>   -0.001761  -0.000162  -0.021645 

-------------------
ELECTRONIC G-MATRIX
-------------------

g-matrix:
    1.214486    -0.339741    -0.381538 
   -0.354550    -1.242323    -0.039848 
   -0.356178     0.144278    -3.383005 

g-factors:
    1.292279     1.292280     3.414537 iso =     1.999699

g-shifts:
   -0.710040    -0.710040     1.412218 iso =    -0.002621
 Orientation: 
  X          -0.2094420    0.9744375    0.0812755
  Y          -0.9774978   -0.2107854    0.0082212
  Z           0.0251427   -0.0777248    0.9966578

Notes:  (1) The g-matrix conforms to the "BgS" spin Hamiltonian convention.
        (2) The principal values are square roots of the eigenvalues of g*gT
        (3) Orientations are eigenvectors of g*gT written as column vectors
        (4) Tensor is right-handed


-----------------------------------
ELECTRONIC G-MATRIX: S contribution
-----------------------------------

g-matrix:
    1.223183    -0.343263    -0.267378 
   -0.353752    -1.242647    -0.029366 
   -0.249309     0.100988    -1.980210 

g-factors:
    1.292280     1.292280     2.002319 iso =     1.528960

g-shifts:
   -0.710040    -0.710040     0.000000 iso =    -0.473360
 Orientation: 
  X           0.1090784    0.9906922    0.0814302
  Y          -0.9940332    0.1087111    0.0089434
  Z           0.0000078   -0.0819199    0.9966389

Notes:  (1) The g-matrix conforms to the "BgS" spin Hamiltonian convention.
        (2) The principal values are square roots of the eigenvalues of g*gT
        (3) Orientations are eigenvectors of g*gT written as column vectors
        (4) Tensor is right-handed


-----------------------------------
ELECTRONIC G-MATRIX: L contribution
-----------------------------------

g-matrix:
   -0.008697     0.003523    -0.114160 
   -0.000799     0.000323    -0.010482 
   -0.106869     0.043290    -1.402795 

g-factors:
    0.000000     0.000000     1.412218 iso =     0.470739

g-shifts:
   -2.002319    -2.002319    -0.590101 iso =    -1.531580
 Orientation: 
  X           0.0914330    0.9925025    0.0811097
  Y          -0.9958112    0.0911292    0.0074473
  Z           0.0000000   -0.0814508    0.9966774

Notes:  (1) The g-matrix conforms to the "BgS" spin Hamiltonian convention.
        (2) The principal values are square roots of the eigenvalues of g*gT
        (3) Orientations are eigenvectors of g*gT written as column vectors
        (4) Tensor is right-handed


------------------------------------------------------------------------------------------------------------------------
                               TRANSITION MAGNETIC DIPOLE CONTRIBUTIONS  
            (theta is the angle between the gz component of the lowest and the nth Kramers pairs)
------------------------------------------------------------------------------------------------------------------------
 States       Energy      Energy     Osh.Str           M2            MX             MY             MZ            theta  
              (cm-1)       (eV)        (au)          (au**2)        (au)           (au)           (au)    
------------------------------------------------------------------------------------------------------------------------
 0  0         0.00       0.0000     0.00000000     0.12381106     0.02853989     0.00262046     0.35069882     180.00
 0  1         0.00       0.0000     0.00000000     0.00083649     0.00234587     0.00021539     0.02882609     180.00
 1  1         0.00       0.0000     0.00000000     0.12381106     0.02853989     0.00262046     0.35069882     180.00
------------------------------------------------------------------------------------------------------------------------

----------------------------------------------
ELECTRONIC G-MATRIX FROM EFFECTIVE HAMILTONIAN
----------------------------------------------
Spin multiplicity = 2

g-matrix:
    1.306315     0.001542     0.171784 
    0.001374     1.292431     0.016811 
    0.172239     0.018917     3.400350 

g-factors:
    1.292279     1.292280     3.414537 iso =     1.999699

g-shifts:
   -0.710040    -0.710040     1.412218 iso =    -0.002621
 Orientation: 
  X          -0.2094438    0.9744371    0.0812755
  Y          -0.9774974   -0.2107873    0.0082212
  Z           0.0251428   -0.0777247    0.9966578

Notes:  (1) The g-matrix conforms to the "BgS" spin Hamiltonian convention.
        (2) The principal values are square roots of the eigenvalues of g*gT
        (3) Orientations are eigenvectors of g*gT written as column vectors
        (4) Tensor is right-handed


--------------------------------
SOC CORRECTED EXCITATION SPECTRA
--------------------------------

Dim(SO)                  = 4
Number of initial states = -1
Center of mass           = ( -0.0197,  0.0140,  0.7284)
Nuclear contribution to the dipole moment =    -0.686217,    0.585183,    2.323080 au

Calculating the dipole integrals          ... done

------------------------------------------------------------------------------------------
                    SOC CORRECTED ABSORPTION SPECTRUM
------------------------------------------------------------------------------------------
  States   Energy   Wavelength   fosc          T2       |TX|       |TY|      |TZ| 
           (cm-1)     (nm)                   (D**2)      (D)        (D)       (D) 
------------------------------------------------------------------------------------------
 0  1       0.0      0.0   0.000000000   0.00000   0.00000   0.00000   0.00000
 0  2     852.0   11736.7   0.000000299   0.00152   0.03802   0.00808   0.00242
 0  3     852.0   11736.7   0.000000002   0.00001   0.00313   0.00066   0.00020
 1  2     852.0   11736.7   0.000000002   0.00001   0.00313   0.00066   0.00020
 1  3     852.0   11736.7   0.000000299   0.00152   0.03802   0.00808   0.00242

------------------------------------------------------------------------------
                           SOC CORRECTED DIPOLE MOMENTS
------------------------------------------------------------------------------
      TX        TY        TZ           |T|
   (Debye)   (Debye)   (Debye)      (Debye)
------------------------------------------------------------------------------
  -1.74423   1.48742   5.90480      6.33415

--------------
CASSCF TIMINGS
--------------

Total time                       ...     3675.5 sec
Sum of individual times          ...     4086.2 sec (111.2%)

Calculation of AO operators
   F(Core) operator              ...       29.7 sec (  0.8%)
   G(Act) operator               ...       32.4 sec (  0.9%)
Calculation of MO transformed quantities
   J(MO) operators               ...      198.4 sec (  5.4%)
   AO->MO one electron integrals ...        0.1 sec (  0.0%)
Configuration interaction steps
   CI-setup phase                ...        0.0 sec (  0.0%)
   CI-solution phase             ...     2686.7 sec ( 73.1%)
   Generation of densities       ...      143.8 sec (  3.9%)
Orbital improvement steps
   Orbital gradient              ...        7.6 sec (  0.2%)
CPCM steps
   Total CPCM time               ...        0.0 sec (  0.0%)
Properties                       ...      572.2 sec ( 15.6%)
   SOC integral calculation      ...      406.1 sec ( 11.0%)
   SSC RMEs (incl. integrals)    ...        0.0 sec (  0.0%)
   SOC RMEs                      ...        9.2 sec (  0.3%)

Maximum memory used throughout the entire CASSCF-calculation: 1683.3 MB


           ************************************************************
           *        Program running with 24 parallel MPI-processes    *
           *              working on a common directory               *
           ************************************************************

------------------------------------------------------------------------------
                         ORCA PROPERTY INTEGRAL CALCULATIONS
------------------------------------------------------------------------------

GBWName                                   ... mol.gbw
Number of atoms                           ...     48
Number of basis functions                 ...    801
Max core memory                           ...  12000 MB

Dipole integrals                          ... YES
Quadrupole integrals                      ...  NO
Linear Momentum integrals                 ...  NO
Angular Momentum integrals                ...  NO
Higher Moments length integrals           ...  NO
Higher Moments velocity integrals         ...  NO
Kinetic energy integrals                  ...  NO
GIAO Right Hand Sides                     ...  NO
SOC integrals                             ...  NO
EPR diamagnetic integrals (GIAO)          ...  NO
EPR gauge integrals                       ...  NO
Field gradient integrals                  ...  NO (   0 nuclei)
Spin-dipole/Fermi contact integrals       ...  NO (   0 nuclei)
Nucleus-orbit integrals                   ...  NO (   0 nuclei)
Geometric perturbations                   ...  NO (  48 nuclei)
Electric origin: ( -0.0197,  0.0140,  0.7284) 
Magnetic origin: (  0.0000,  0.0000,  0.0000) 

Calculating integrals                     ... Electric Dipole (Length)     done (  0.1 sec)

Property integrals calculated in   0.1 sec

Maximum memory used throughout the entire PROPINT-calculation: 79.1 MB

-------------------------   --------------------
FINAL SINGLE POINT ENERGY     -4790.283096855377
-------------------------   --------------------


                            ***************************************
                            *     ORCA property calculations      *
                            ***************************************

                                    ---------------------
                                    Active property flags
                                    ---------------------
   (+) Dipole Moment


------------------------------------------------------------------------------
                       ORCA ELECTRIC PROPERTIES CALCULATION
------------------------------------------------------------------------------

Dipole Moment Calculation                       ... ON
Quadrupole Moment Calculation                   ... OFF
Polarizability Calculation                      ... OFF
Atomic Dipole Moment Calculation                ... OFF
Atomic Quadrupole Moment Calculation            ... OFF
Atomic Polarizability Calculation               ... OFF
Relativistic picture-change correction          ... OFF
GBWName                                         ... mol.gbw
Electron density                                ... mol.scfp

The origin for moment calculation is the CENTER OF MASS  = (-0.019722,  0.013989  0.728381)

-------------
DIPOLE MOMENT
-------------
                                X             Y             Z
Electronic contribution:      0.25299      -0.55731      -2.68414
Nuclear contribution   :     -0.68622       0.58518       2.32308
                        -----------------------------------------
Total Dipole Moment    :     -0.43322       0.02788      -0.36106
                        -----------------------------------------
Magnitude (a.u.)       :      0.56464
Magnitude (Debye)      :      1.43521



--------------------
Rotational spectrum 
--------------------
 
Rotational constants in cm-1:     0.011582     0.011080     0.009673 
Rotational constants in MHz :   347.213527   332.180003   289.981014 

 Dipole components along the rotational axes: 
x,y,z [a.u.] :     0.411851     0.194252    -0.333867 
x,y,z [Debye]:     1.046842     0.493750    -0.848622 

 

                           *** CIPSI DENSITY ***

------------------------------------------------------------------------------
                       ORCA ELECTRIC PROPERTIES CALCULATION
------------------------------------------------------------------------------

Dipole Moment Calculation                       ... ON
Quadrupole Moment Calculation                   ... OFF
Polarizability Calculation                      ... OFF
Atomic Dipole Moment Calculation                ... OFF
Atomic Quadrupole Moment Calculation            ... OFF
Atomic Polarizability Calculation               ... OFF
Relativistic picture-change correction          ... OFF
GBWName                                         ... mol.gbw
Electron density                                ... mol.cipsip

The origin for moment calculation is the CENTER OF MASS  = (-0.019722,  0.013989  0.728381)

-------------
DIPOLE MOMENT
-------------
                                X             Y             Z
Electronic contribution:      0.25299      -0.55731      -2.68414
Nuclear contribution   :     -0.68622       0.58518       2.32308
                        -----------------------------------------
Total Dipole Moment    :     -0.43322       0.02788      -0.36106
                        -----------------------------------------
Magnitude (a.u.)       :      0.56464
Magnitude (Debye)      :      1.43521



--------------------
Rotational spectrum 
--------------------
 
Rotational constants in cm-1:     0.011582     0.011080     0.009673 
Rotational constants in MHz :   347.213527   332.180003   289.981014 

 Dipole components along the rotational axes: 
x,y,z [a.u.] :     0.411851     0.194252    -0.333867 
x,y,z [Debye]:     1.046842     0.493750    -0.848622 

 

--------------------------------
SUGGESTED CITATIONS FOR THIS RUN
--------------------------------

Below you find a list of papers that are relevant to this ORCA run
We neither can nor want to force you to cite these paper, but we appreciate if you do
You receive ORCA, which is the product of a lot of hard work by many enthusiastic individuals, for free
The only thing we kindly ask in return is that you cite our papers,
We deeply appreciate it, if you show your appreciation for ORCA by not just citing the generic ORCA reference.

Please note that relegating all ORCA citations to the supporting information does *not* help us.
SI sections are not indexed - citations you put there will not count into any citation statistics
But we need these citations in order to attract the funding resources that allow us to do what we are doing

Therefore, if you are a happy ORCA user, please consider citing a few of the papers listed below in the main body of your paper

In addition to the list printed below, the program has created the file mol.bibtex that contains the list in bibtex format
You can import this file easily into all common literature databanks and citation aid programs


List of essential papers. We consider these as the minimum necessary citations

  1. Neese,F.
     Software update: the ORCA program system, version 5.0
     WIRES Comput. Molec. Sci., 2022 12(1)e1606
     doi.org/10.1002/wcms.1606

List of papers to cite with high priority. The work reported in these papers was absolutely
necessary for this run to complete.
Our perspective: the developers of density functionals and basis sets usually get cited in chemistry papers
Good! But without the algorithms to do something with them, the functionals or basis sets would not do anything.
Hence, in our opinion, the algorithm design and method developments papers are equally worthy of getting cited

  1. Kollmar,C.; Sivalingam,K.; Helmich-Paris,B.; Angeli,C.; Neese,F.
     A perturbation-based super-CI approach for the orbital optimization of a CASSCF wave function
     J. Comput. Chem., 2019 40 1463-1470
     doi.org/10.1002/jcc.25801
  2. Neese,F.
     The SHARK Integral Generation and Digestion System
     J. Comp. Chem., 2022  1-16
     doi.org/10.1002/jcc.26942

List of suggested additional citations. These are papers that are important in the 'surrounding' of 
of this run, or papers that preceded the highly important papers. If you like your results we are grateful for a citation.

  1. Neese,F.
     The ORCA program system
     WIRES Comput. Molec. Sci., 2012 2(1)73-78
     doi.org/10.1002/wcms.81
  2. Neese,F.
     Software update: the ORCA program system, version 4.0
     WIRES Comput. Molec. Sci., 2018 8(1)1-6
     doi.org/10.1002/wcms.1327
  3. Neese,F.; Wennmohs,F.; Becker,U.; Riplinger,C.
     The ORCA quantum chemistry program package
     J. Chem. Phys., 2020 152 Art. No. L224108
     doi.org/10.1063/5.0004608

Timings for individual modules:

Sum of individual times         ...     3699.066 sec (=  61.651 min)
GTO integral calculation        ...        2.781 sec (=   0.046 min)   0.1 %
Relativistic integrals          ...        7.952 sec (=   0.133 min)   0.2 %
SCF iterations                  ...        9.114 sec (=   0.152 min)   0.2 %
CASSCF iterations               ...     3676.760 sec (=  61.279 min)  99.4 %
Property integrals              ...        2.459 sec (=   0.041 min)   0.1 %
                             ****ORCA TERMINATED NORMALLY****
TOTAL RUN TIME: 0 days 1 hours 1 minutes 40 seconds 800 msec
'casscf_3_2_loc_canon_rot.gbw' -> '/csnfs/users/llang/calculations/ICE_SOC_SSC/Mo_HIPT_NH3/scalarrel/CASSCF_3_5_startorbs/mergefrag_startorbs/CASSCF_3_5_QDPT_locorbs/CASCI_49_33_gtensor/casscf_3_2_loc_canon_rot.gbw'
'mol.CAS_DTensor_HEFF_rotated.xyz' -> '/csnfs/users/llang/calculations/ICE_SOC_SSC/Mo_HIPT_NH3/scalarrel/CASSCF_3_5_startorbs/mergefrag_startorbs/CASSCF_3_5_QDPT_locorbs/CASCI_49_33_gtensor/mol.CAS_DTensor_HEFF_rotated.xyz'
'mol.bibtex' -> '/csnfs/users/llang/calculations/ICE_SOC_SSC/Mo_HIPT_NH3/scalarrel/CASSCF_3_5_startorbs/mergefrag_startorbs/CASSCF_3_5_QDPT_locorbs/CASCI_49_33_gtensor/mol.bibtex'
'mol.densities' -> '/csnfs/users/llang/calculations/ICE_SOC_SSC/Mo_HIPT_NH3/scalarrel/CASSCF_3_5_startorbs/mergefrag_startorbs/CASSCF_3_5_QDPT_locorbs/CASCI_49_33_gtensor/mol.densities'
'mol.err' -> '/csnfs/users/llang/calculations/ICE_SOC_SSC/Mo_HIPT_NH3/scalarrel/CASSCF_3_5_startorbs/mergefrag_startorbs/CASSCF_3_5_QDPT_locorbs/CASCI_49_33_gtensor/mol.err'
'mol.gbw' -> '/csnfs/users/llang/calculations/ICE_SOC_SSC/Mo_HIPT_NH3/scalarrel/CASSCF_3_5_startorbs/mergefrag_startorbs/CASSCF_3_5_QDPT_locorbs/CASCI_49_33_gtensor/mol.gbw'
'mol.job' -> '/csnfs/users/llang/calculations/ICE_SOC_SSC/Mo_HIPT_NH3/scalarrel/CASSCF_3_5_startorbs/mergefrag_startorbs/CASSCF_3_5_QDPT_locorbs/CASCI_49_33_gtensor/mol.job'
'mol_property.txt' -> '/csnfs/users/llang/calculations/ICE_SOC_SSC/Mo_HIPT_NH3/scalarrel/CASSCF_3_5_startorbs/mergefrag_startorbs/CASSCF_3_5_QDPT_locorbs/CASCI_49_33_gtensor/mol_property.txt'
cp: cannot stat 'mol.asa.inp': No such file or directory
cp: missing destination file operand after '/csnfs/users/llang/calculations/ICE_SOC_SSC/Mo_HIPT_NH3/scalarrel/CASSCF_3_5_startorbs/mergefrag_startorbs/CASSCF_3_5_QDPT_locorbs/CASCI_49_33_gtensor/'
Try 'cp --help' for more information.
